ITEM: TIMESTEP
10000
ITEM: NUMBER OF ATOMS
1
ITEM: BOX BOUNDS xy xz yz pp pp pp
0 45.4624 0
0 45.4624 0
0 51.75 0
ITEM: ATOMS id type x y z
1 7 23.9828 21.1506 6.6757
ITEM: TIMESTEP
12000
ITEM: NUMBER OF ATOMS
1
ITEM: BOX BOUNDS xy xz yz pp pp pp
0 45.4624 0
0 45.4624 0
0 51.75 0
ITEM: ATOMS id type x y z
1 7 24.5033 22.3163 7.93606
ITEM: TIMESTEP
14000
ITEM: NUMBER OF ATOMS
1
ITEM: BOX BOUNDS xy xz yz pp pp pp
0 45.4624 0
0 45.4624 0
0 51.75 0
ITEM: ATOMS id type x y z
1 7 23.6428 22.9473 7.71246
ITEM: TIMESTEP
16000
ITEM: NUMBER OF ATOMS
1
ITEM: BOX BOUNDS xy xz yz pp pp pp
0 45.4624 0
0 45.4624 0
0 51.75 0
ITEM: ATOMS id type x y z
1 7 23.0368 22.9292 7.54495
ITEM: TIMESTEP
18000
ITEM: NUMBER OF ATOMS
1
ITEM: BOX BOUNDS xy xz yz pp pp pp
0 45.4624 0
0 45.4624 0
0 51.75 0
ITEM: ATOMS id type x y z
1 7 23.4326 22.4337 7.82233
ITEM: TIMESTEP
20000
ITEM: NUMBER OF ATOMS
1
ITEM: BOX BOUNDS xy xz yz pp pp pp
0 45.4624 0
0 45.4624 0
0 51.75 0
ITEM: ATOMS id type x y z
1 7 24.9993 21.2778 8.50234
ITEM: TIMESTEP
22000
ITEM: NUMBER OF ATOMS
1
ITEM: BOX BOUNDS xy xz yz pp pp pp
0 45.4624 0
0 45.4624 0
0 51.75 0
ITEM: ATOMS id type x y z
1 7 23.9989 19.6186 7.88162
ITEM: TIMESTEP
24000
ITEM: NUMBER OF ATOMS
1
ITEM: BOX BOUNDS xy xz yz pp pp pp
0 45.4624 0
0 45.4624 0
0 51.75 0
ITEM: ATOMS id type x y z
1 7 24.4275 20.2861 7.35401
ITEM: TIMESTEP
26000
ITEM: NUMBER OF ATOMS
1
ITEM: BOX BOUNDS xy xz yz pp pp pp
0 45.4624 0
0 45.4624 0
0 51.75 0
ITEM: ATOMS id type x y z
1 7 24.891 20.0599 6.54962
ITEM: TIMESTEP
28000
ITEM: NUMBER OF ATOMS
1
ITEM: BOX BOUNDS xy xz yz pp pp pp
0 45.4624 0
0 45.4624 0
0 51.75 0
ITEM: ATOMS id type x y z
1 7 25.0231 18.9756 5.8989
ITEM: TIMESTEP
30000
ITEM: NUMBER OF ATOMS
1
ITEM: BOX BOUNDS xy xz yz pp pp pp
0 45.4624 0
0 45.4624 0
0 51.75 0
ITEM: ATOMS id type x y z
1 7 25.0663 20.3645 7.30722
ITEM: TIMESTEP
32000
ITEM: NUMBER OF ATOMS
1
ITEM: BOX BOUNDS xy xz yz pp pp pp
0 45.4624 0
0 45.4624 0
0 51.75 0
ITEM: ATOMS id type x y z
1 7 25.5054 18.7445 7.99376
ITEM: TIMESTEP
34000
ITEM: NUMBER OF ATOMS
1
ITEM: BOX BOUNDS xy xz yz pp pp pp
0 45.4624 0
0 45.4624 0
0 51.75 0
ITEM: ATOMS id type x y z
1 7 25.2657 19.6902 8.32469
ITEM: TIMESTEP
36000
ITEM: NUMBER OF ATOMS
1
ITEM: BOX BOUNDS xy xz yz pp pp pp
0 45.4624 0
0 45.4624 0
0 51.75 0
ITEM: ATOMS id type x y z
1 7 25.1296 19.8208 7.27936
ITEM: TIMESTEP
38000
ITEM: NUMBER OF ATOMS
1
ITEM: BOX BOUNDS xy xz yz pp pp pp
0 45.4624 0
0 45.4624 0
0 51.75 0
ITEM: ATOMS id type x y z
1 7 25.054 21.2444 6.15876
ITEM: TIMESTEP
40000
ITEM: NUMBER OF ATOMS
1
ITEM: BOX BOUNDS xy xz yz pp pp pp
0 45.4624 0
0 45.4624 0
0 51.75 0
ITEM: ATOMS id type x y z
1 7 26.0736 21.5544 4.76215
ITEM: TIMESTEP
42000
ITEM: NUMBER OF ATOMS
1
ITEM: BOX BOUNDS xy xz yz pp pp pp
0 45.4624 0
0 45.4624 0
0 51.75 0
ITEM: ATOMS id type x y z
1 7 24.831 20.0183 3.48411
ITEM: TIMESTEP
44000
ITEM: NUMBER OF ATOMS
1
ITEM: BOX BOUNDS xy xz yz pp pp pp
0 45.4624 0
0 45.4624 0
0 51.75 0
ITEM: ATOMS id type x y z
1 7 24.0547 20.282 4.41697
ITEM: TIMESTEP
46000
ITEM: NUMBER OF ATOMS
1
ITEM: BOX BOUNDS xy xz yz pp pp pp
0 45.4624 0
0 45.4624 0
0 51.75 0
ITEM: ATOMS id type x y z
1 7 24.8578 20.8937 3.92864
ITEM: TIMESTEP
48000
ITEM: NUMBER OF ATOMS
1
ITEM: BOX BOUNDS xy xz yz pp pp pp
0 45.4624 0
0 45.4624 0
0 51.75 0
ITEM: ATOMS id type x y z
1 7 23.4174 20.922 4.54405
ITEM: TIMESTEP
50000
ITEM: NUMBER OF ATOMS
1
ITEM: BOX BOUNDS xy xz yz pp pp pp
0 45.4624 0
0 45.4624 0
0 51.75 0
ITEM: ATOMS id type x y z
1 7 23.166 20.6718 4.03308
ITEM: TIMESTEP
52000
ITEM: NUMBER OF ATOMS
1
ITEM: BOX BOUNDS xy xz yz pp pp pp
0 45.4624 0
0 45.4624 0
0 51.75 0
ITEM: ATOMS id type x y z
1 7 23.2987 20.8909 4.92368
ITEM: TIMESTEP
54000
ITEM: NUMBER OF ATOMS
1
ITEM: BOX BOUNDS xy xz yz pp pp pp
0 45.4624 0
0 45.4624 0
0 51.75 0
ITEM: ATOMS id type x y z
1 7 24.1009 21.8288 5.23809
ITEM: TIMESTEP
56000
ITEM: NUMBER OF ATOMS
1
ITEM: BOX BOUNDS xy xz yz pp pp pp
0 45.4624 0
0 45.4624 0
0 51.75 0
ITEM: ATOMS id type x y z
1 7 23.2228 21.2534 5.01769
ITEM: TIMESTEP
58000
ITEM: NUMBER OF ATOMS
1
ITEM: BOX BOUNDS xy xz yz pp pp pp
0 45.4624 0
0 45.4624 0
0 51.75 0
ITEM: ATOMS id type x y z
1 7 23.1476 21.7442 4.16242
ITEM: TIMESTEP
60000
ITEM: NUMBER OF ATOMS
1
ITEM: BOX BOUNDS xy xz yz pp pp pp
0 45.4624 0
0 45.4624 0
0 51.75 0
ITEM: ATOMS id type x y z
1 7 24.202 22.2859 4.4186
ITEM: TIMESTEP
62000
ITEM: NUMBER OF ATOMS
1
ITEM: BOX BOUNDS xy xz yz pp pp pp
0 45.4624 0
0 45.4624 0
0 51.75 0
ITEM: ATOMS id type x y z
1 7 24.7202 23.3804 4.31966
ITEM: TIMESTEP
64000
ITEM: NUMBER OF ATOMS
1
ITEM: BOX BOUNDS xy xz yz pp pp pp
0 45.4624 0
0 45.4624 0
0 51.75 0
ITEM: ATOMS id type x y z
1 7 24.3506 24.3538 2.93951
ITEM: TIMESTEP
66000
ITEM: NUMBER OF ATOMS
1
ITEM: BOX BOUNDS xy xz yz pp pp pp
0 45.4624 0
0 45.4624 0
0 51.75 0
ITEM: ATOMS id type x y z
1 7 24.5466 24.3076 3.32909
ITEM: TIMESTEP
68000
ITEM: NUMBER OF ATOMS
1
ITEM: BOX BOUNDS xy xz yz pp pp pp
0 45.4624 0
0 45.4624 0
0 51.75 0
ITEM: ATOMS id type x y z
1 7 24.5689 24.6329 3.04037
ITEM: TIMESTEP
70000
ITEM: NUMBER OF ATOMS
1
ITEM: BOX BOUNDS xy xz yz pp pp pp
0 45.4624 0
0 45.4624 0
0 51.75 0
ITEM: ATOMS id type x y z
1 7 24.035 24.9643 1.99401
ITEM: TIMESTEP
72000
ITEM: NUMBER OF ATOMS
1
ITEM: BOX BOUNDS xy xz yz pp pp pp
0 45.4624 0
0 45.4624 0
0 51.75 0
ITEM: ATOMS id type x y z
1 7 23.423 24.2372 0.780995
ITEM: TIMESTEP
74000
ITEM: NUMBER OF ATOMS
1
ITEM: BOX BOUNDS xy xz yz pp pp pp
0 45.4624 0
0 45.4624 0
0 51.75 0
ITEM: ATOMS id type x y z
1 7 24.6387 22.412 0.530698
ITEM: TIMESTEP
76000
ITEM: NUMBER OF ATOMS
1
ITEM: BOX BOUNDS xy xz yz pp pp pp
0 45.4624 0
0 45.4624 0
0 51.75 0
ITEM: ATOMS id type x y z
1 7 24.8475 22.4312 0.058462
ITEM: TIMESTEP
78000
ITEM: NUMBER OF ATOMS
1
ITEM: BOX BOUNDS xy xz yz pp pp pp
0 45.4624 0
0 45.4624 0
0 51.75 0
ITEM: ATOMS id type x y z
1 7 25.183 22.289 -0.1392
ITEM: TIMESTEP
80000
ITEM: NUMBER OF ATOMS
1
ITEM: BOX BOUNDS xy xz yz pp pp pp
0 45.4624 0
0 45.4624 0
0 51.75 0
ITEM: ATOMS id type x y z
1 7 24.8364 21.426 -0.1098
ITEM: TIMESTEP
82000
ITEM: NUMBER OF ATOMS
1
ITEM: BOX BOUNDS xy xz yz pp pp pp
0 45.4624 0
0 45.4624 0
0 51.75 0
ITEM: ATOMS id type x y z
1 7 24.0963 20.5711 0.920484
ITEM: TIMESTEP
84000
ITEM: NUMBER OF ATOMS
1
ITEM: BOX BOUNDS xy xz yz pp pp pp
0 45.4624 0
0 45.4624 0
0 51.75 0
ITEM: ATOMS id type x y z
1 7 23.7569 20.0198 1.63353
ITEM: TIMESTEP
86000
ITEM: NUMBER OF ATOMS
1
ITEM: BOX BOUNDS xy xz yz pp pp pp
0 45.4624 0
0 45.4624 0
0 51.75 0
ITEM: ATOMS id type x y z
1 7 23.594 19.4161 0.728744
ITEM: TIMESTEP
88000
ITEM: NUMBER OF ATOMS
1
ITEM: BOX BOUNDS xy xz yz pp pp pp
0 45.4624 0
0 45.4624 0
0 51.75 0
ITEM: ATOMS id type x y z
1 7 24.1852 19.0935 1.36795
ITEM: TIMESTEP
90000
ITEM: NUMBER OF ATOMS
1
ITEM: BOX BOUNDS xy xz yz pp pp pp
0 45.4624 0
0 45.4624 0
0 51.75 0
ITEM: ATOMS id type x y z
1 7 24.3226 18.747 1.38545
ITEM: TIMESTEP
92000
ITEM: NUMBER OF ATOMS
1
ITEM: BOX BOUNDS xy xz yz pp pp pp
0 45.4624 0
0 45.4624 0
0 51.75 0
ITEM: ATOMS id type x y z
1 7 24.5293 18.4085 1.7412
ITEM: TIMESTEP
94000
ITEM: NUMBER OF ATOMS
1
ITEM: BOX BOUNDS xy xz yz pp pp pp
0 45.4624 0
0 45.4624 0
0 51.75 0
ITEM: ATOMS id type x y z
1 7 25.337 17.9721 1.20602
ITEM: TIMESTEP
96000
ITEM: NUMBER OF ATOMS
1
ITEM: BOX BOUNDS xy xz yz pp pp pp
0 45.4624 0
0 45.4624 0
0 51.75 0
ITEM: ATOMS id type x y z
1 7 25.5747 17.8435 0.732467
ITEM: TIMESTEP
98000
ITEM: NUMBER OF ATOMS
1
ITEM: BOX BOUNDS xy xz yz pp pp pp
0 45.4624 0
0 45.4624 0
0 51.75 0
ITEM: ATOMS id type x y z
1 7 25.1313 18.0468 1.24946
ITEM: TIMESTEP
100000
ITEM: NUMBER OF ATOMS
1
ITEM: BOX BOUNDS xy xz yz pp pp pp
0 45.4624 0
0 45.4624 0
0 51.75 0
ITEM: ATOMS id type x y z
1 7 25.7018 18.4885 1.50686
ITEM: TIMESTEP
102000
ITEM: NUMBER OF ATOMS
1
ITEM: BOX BOUNDS xy xz yz pp pp pp
0 45.4624 0
0 45.4624 0
0 51.75 0
ITEM: ATOMS id type x y z
1 7 24.5758 17.9492 1.53676
ITEM: TIMESTEP
104000
ITEM: NUMBER OF ATOMS
1
ITEM: BOX BOUNDS xy xz yz pp pp pp
0 45.4624 0
0 45.4624 0
0 51.75 0
ITEM: ATOMS id type x y z
1 7 24.564 17.6302 0.745943
ITEM: TIMESTEP
106000
ITEM: NUMBER OF ATOMS
1
ITEM: BOX BOUNDS xy xz yz pp pp pp
0 45.4624 0
0 45.4624 0
0 51.75 0
ITEM: ATOMS id type x y z
1 7 24.5825 18.8034 1.48216
ITEM: TIMESTEP
108000
ITEM: NUMBER OF ATOMS
1
ITEM: BOX BOUNDS xy xz yz pp pp pp
0 45.4624 0
0 45.4624 0
0 51.75 0
ITEM: ATOMS id type x y z
1 7 24.0182 18.3043 0.405817
ITEM: TIMESTEP
110000
ITEM: NUMBER OF ATOMS
1
ITEM: BOX BOUNDS xy xz yz pp pp pp
0 45.4624 0
0 45.4624 0
0 51.75 0
ITEM: ATOMS id type x y z
1 7 24.047 18.1431 0.578939
ITEM: TIMESTEP
112000
ITEM: NUMBER OF ATOMS
1
ITEM: BOX BOUNDS xy xz yz pp pp pp
0 45.4624 0
0 45.4624 0
0 51.75 0
ITEM: ATOMS id type x y z
1 7 24.2585 18.2333 1.35454
ITEM: TIMESTEP
114000
ITEM: NUMBER OF ATOMS
1
ITEM: BOX BOUNDS xy xz yz pp pp pp
0 45.4624 0
0 45.4624 0
0 51.75 0
ITEM: ATOMS id type x y z
1 7 23.5256 18.5456 1.01509
ITEM: TIMESTEP
116000
ITEM: NUMBER OF ATOMS
1
ITEM: BOX BOUNDS xy xz yz pp pp pp
0 45.4624 0
0 45.4624 0
0 51.75 0
ITEM: ATOMS id type x y z
1 7 24.4255 18.8905 1.63311
ITEM: TIMESTEP
118000
ITEM: NUMBER OF ATOMS
1
ITEM: BOX BOUNDS xy xz yz pp pp pp
0 45.4624 0
0 45.4624 0
0 51.75 0
ITEM: ATOMS id type x y z
1 7 24.4006 19.2379 1.43729
ITEM: TIMESTEP
120000
ITEM: NUMBER OF ATOMS
1
ITEM: BOX BOUNDS xy xz yz pp pp pp
0 45.4624 0
0 45.4624 0
0 51.75 0
ITEM: ATOMS id type x y z
1 7 24.3115 19.9951 1.8973
ITEM: TIMESTEP
122000
ITEM: NUMBER OF ATOMS
1
ITEM: BOX BOUNDS xy xz yz pp pp pp
0 45.4624 0
0 45.4624 0
0 51.75 0
ITEM: ATOMS id type x y z
1 7 24.6444 20.0723 1.84752
ITEM: TIMESTEP
124000
ITEM: NUMBER OF ATOMS
1
ITEM: BOX BOUNDS xy xz yz pp pp pp
0 45.4624 0
0 45.4624 0
0 51.75 0
ITEM: ATOMS id type x y z
1 7 24.1143 20.4413 1.74518
ITEM: TIMESTEP
126000
ITEM: NUMBER OF ATOMS
1
ITEM: BOX BOUNDS xy xz yz pp pp pp
0 45.4624 0
0 45.4624 0
0 51.75 0
ITEM: ATOMS id type x y z
1 7 23.8602 20.8178 1.80199
ITEM: TIMESTEP
128000
ITEM: NUMBER OF ATOMS
1
ITEM: BOX BOUNDS xy xz yz pp pp pp
0 45.4624 0
0 45.4624 0
0 51.75 0
ITEM: ATOMS id type x y z
1 7 23.9192 21.1378 2.38166
ITEM: TIMESTEP
130000
ITEM: NUMBER OF ATOMS
1
ITEM: BOX BOUNDS xy xz yz pp pp pp
0 45.4624 0
0 45.4624 0
0 51.75 0
ITEM: ATOMS id type x y z
1 7 24.5327 21.598 2.66969
ITEM: TIMESTEP
132000
ITEM: NUMBER OF ATOMS
1
ITEM: BOX BOUNDS xy xz yz pp pp pp
0 45.4624 0
0 45.4624 0
0 51.75 0
ITEM: ATOMS id type x y z
1 7 24.227 21.7582 2.84907
ITEM: TIMESTEP
134000
ITEM: NUMBER OF ATOMS
1
ITEM: BOX BOUNDS xy xz yz pp pp pp
0 45.4624 0
0 45.4624 0
0 51.75 0
ITEM: ATOMS id type x y z
1 7 24.2034 21.9814 2.75006
ITEM: TIMESTEP
136000
ITEM: NUMBER OF ATOMS
1
ITEM: BOX BOUNDS xy xz yz pp pp pp
0 45.4624 0
0 45.4624 0
0 51.75 0
ITEM: ATOMS id type x y z
1 7 25.4268 22.4361 2.53949
ITEM: TIMESTEP
138000
ITEM: NUMBER OF ATOMS
1
ITEM: BOX BOUNDS xy xz yz pp pp pp
0 45.4624 0
0 45.4624 0
0 51.75 0
ITEM: ATOMS id type x y z
1 7 25.3644 22.4757 2.3449
ITEM: TIMESTEP
140000
ITEM: NUMBER OF ATOMS
1
ITEM: BOX BOUNDS xy xz yz pp pp pp
0 45.4624 0
0 45.4624 0
0 51.75 0
ITEM: ATOMS id type x y z
1 7 25.34 22.064 2.86578
ITEM: TIMESTEP
142000
ITEM: NUMBER OF ATOMS
1
ITEM: BOX BOUNDS xy xz yz pp pp pp
0 45.4624 0
0 45.4624 0
0 51.75 0
ITEM: ATOMS id type x y z
1 7 25.1432 22.2922 3.67438
ITEM: TIMESTEP
144000
ITEM: NUMBER OF ATOMS
1
ITEM: BOX BOUNDS xy xz yz pp pp pp
0 45.4624 0
0 45.4624 0
0 51.75 0
ITEM: ATOMS id type x y z
1 7 24.7652 21.7227 3.41058
ITEM: TIMESTEP
146000
ITEM: NUMBER OF ATOMS
1
ITEM: BOX BOUNDS xy xz yz pp pp pp
0 45.4624 0
0 45.4624 0
0 51.75 0
ITEM: ATOMS id type x y z
1 7 24.7635 22.0169 3.17358
ITEM: TIMESTEP
148000
ITEM: NUMBER OF ATOMS
1
ITEM: BOX BOUNDS xy xz yz pp pp pp
0 45.4624 0
0 45.4624 0
0 51.75 0
ITEM: ATOMS id type x y z
1 7 24.4572 22.2486 3.28641
ITEM: TIMESTEP
150000
ITEM: NUMBER OF ATOMS
1
ITEM: BOX BOUNDS xy xz yz pp pp pp
0 45.4624 0
0 45.4624 0
0 51.75 0
ITEM: ATOMS id type x y z
1 7 24.267 21.3708 3.44385
ITEM: TIMESTEP
152000
ITEM: NUMBER OF ATOMS
1
ITEM: BOX BOUNDS xy xz yz pp pp pp
0 45.4624 0
0 45.4624 0
0 51.75 0
ITEM: ATOMS id type x y z
1 7 23.5327 20.8196 4.40875
ITEM: TIMESTEP
154000
ITEM: NUMBER OF ATOMS
1
ITEM: BOX BOUNDS xy xz yz pp pp pp
0 45.4624 0
0 45.4624 0
0 51.75 0
ITEM: ATOMS id type x y z
1 7 22.8571 20.1141 4.73491
ITEM: TIMESTEP
156000
ITEM: NUMBER OF ATOMS
1
ITEM: BOX BOUNDS xy xz yz pp pp pp
0 45.4624 0
0 45.4624 0
0 51.75 0
ITEM: ATOMS id type x y z
1 7 23.0424 19.3041 4.8793
ITEM: TIMESTEP
158000
ITEM: NUMBER OF ATOMS
1
ITEM: BOX BOUNDS xy xz yz pp pp pp
0 45.4624 0
0 45.4624 0
0 51.75 0
ITEM: ATOMS id type x y z
1 7 22.9882 19.4417 5.03672
ITEM: TIMESTEP
160000
ITEM: NUMBER OF ATOMS
1
ITEM: BOX BOUNDS xy xz yz pp pp pp
0 45.4624 0
0 45.4624 0
0 51.75 0
ITEM: ATOMS id type x y z
1 7 22.7075 18.927 4.53673
ITEM: TIMESTEP
162000
ITEM: NUMBER OF ATOMS
1
ITEM: BOX BOUNDS xy xz yz pp pp pp
0 45.4624 0
0 45.4624 0
0 51.75 0
ITEM: ATOMS id type x y z
1 7 23.1613 18.7212 4.6745
ITEM: TIMESTEP
164000
ITEM: NUMBER OF ATOMS
1
ITEM: BOX BOUNDS xy xz yz pp pp pp
0 45.4624 0
0 45.4624 0
0 51.75 0
ITEM: ATOMS id type x y z
1 7 23.6007 18.6267 4.27515
ITEM: TIMESTEP
166000
ITEM: NUMBER OF ATOMS
1
ITEM: BOX BOUNDS xy xz yz pp pp pp
0 45.4624 0
0 45.4624 0
0 51.75 0
ITEM: ATOMS id type x y z
1 7 23.7879 19.3277 4.39184
ITEM: TIMESTEP
168000
ITEM: NUMBER OF ATOMS
1
ITEM: BOX BOUNDS xy xz yz pp pp pp
0 45.4624 0
0 45.4624 0
0 51.75 0
ITEM: ATOMS id type x y z
1 7 24.0218 19.3568 3.97207
ITEM: TIMESTEP
170000
ITEM: NUMBER OF ATOMS
1
ITEM: BOX BOUNDS xy xz yz pp pp pp
0 45.4624 0
0 45.4624 0
0 51.75 0
ITEM: ATOMS id type x y z
1 7 24.1079 19.3929 4.57621
ITEM: TIMESTEP
172000
ITEM: NUMBER OF ATOMS
1
ITEM: BOX BOUNDS xy xz yz pp pp pp
0 45.4624 0
0 45.4624 0
0 51.75 0
ITEM: ATOMS id type x y z
1 7 23.9251 18.6678 5.37603
ITEM: TIMESTEP
174000
ITEM: NUMBER OF ATOMS
1
ITEM: BOX BOUNDS xy xz yz pp pp pp
0 45.4624 0
0 45.4624 0
0 51.75 0
ITEM: ATOMS id type x y z
1 7 23.8521 18.5979 5.93887
ITEM: TIMESTEP
176000
ITEM: NUMBER OF ATOMS
1
ITEM: BOX BOUNDS xy xz yz pp pp pp
0 45.4624 0
0 45.4624 0
0 51.75 0
ITEM: ATOMS id type x y z
1 7 23.733 18.6176 6.31327
ITEM: TIMESTEP
178000
ITEM: NUMBER OF ATOMS
1
ITEM: BOX BOUNDS xy xz yz pp pp pp
0 45.4624 0
0 45.4624 0
0 51.75 0
ITEM: ATOMS id type x y z
1 7 23.7534 18.2357 6.56199
ITEM: TIMESTEP
180000
ITEM: NUMBER OF ATOMS
1
ITEM: BOX BOUNDS xy xz yz pp pp pp
0 45.4624 0
0 45.4624 0
0 51.75 0
ITEM: ATOMS id type x y z
1 7 23.8759 18.3985 7.43752
ITEM: TIMESTEP
182000
ITEM: NUMBER OF ATOMS
1
ITEM: BOX BOUNDS xy xz yz pp pp pp
0 45.4624 0
0 45.4624 0
0 51.75 0
ITEM: ATOMS id type x y z
1 7 23.2593 18.3532 6.97478
ITEM: TIMESTEP
184000
ITEM: NUMBER OF ATOMS
1
ITEM: BOX BOUNDS xy xz yz pp pp pp
0 45.4624 0
0 45.4624 0
0 51.75 0
ITEM: ATOMS id type x y z
1 7 23.2372 18.695 7.37632
ITEM: TIMESTEP
186000
ITEM: NUMBER OF ATOMS
1
ITEM: BOX BOUNDS xy xz yz pp pp pp
0 45.4624 0
0 45.4624 0
0 51.75 0
ITEM: ATOMS id type x y z
1 7 23.5145 18.9839 7.42859
ITEM: TIMESTEP
188000
ITEM: NUMBER OF ATOMS
1
ITEM: BOX BOUNDS xy xz yz pp pp pp
0 45.4624 0
0 45.4624 0
0 51.75 0
ITEM: ATOMS id type x y z
1 7 23.6271 19.2739 6.22038
ITEM: TIMESTEP
190000
ITEM: NUMBER OF ATOMS
1
ITEM: BOX BOUNDS xy xz yz pp pp pp
0 45.4624 0
0 45.4624 0
0 51.75 0
ITEM: ATOMS id type x y z
1 7 24.7601 19.3846 5.89825
ITEM: TIMESTEP
192000
ITEM: NUMBER OF ATOMS
1
ITEM: BOX BOUNDS xy xz yz pp pp pp
0 45.4624 0
0 45.4624 0
0 51.75 0
ITEM: ATOMS id type x y z
1 7 25.284 20.2722 5.0757
ITEM: TIMESTEP
194000
ITEM: NUMBER OF ATOMS
1
ITEM: BOX BOUNDS xy xz yz pp pp pp
0 45.4624 0
0 45.4624 0
0 51.75 0
ITEM: ATOMS id type x y z
1 7 25.1994 20.3654 3.51777
ITEM: TIMESTEP
196000
ITEM: NUMBER OF ATOMS
1
ITEM: BOX BOUNDS xy xz yz pp pp pp
0 45.4624 0
0 45.4624 0
0 51.75 0
ITEM: ATOMS id type x y z
1 7 24.5009 19.7812 4.13613
ITEM: TIMESTEP
198000
ITEM: NUMBER OF ATOMS
1
ITEM: BOX BOUNDS xy xz yz pp pp pp
0 45.4624 0
0 45.4624 0
0 51.75 0
ITEM: ATOMS id type x y z
1 7 25.4026 19.7551 4.48271
ITEM: TIMESTEP
200000
ITEM: NUMBER OF ATOMS
1
ITEM: BOX BOUNDS xy xz yz pp pp pp
0 45.4624 0
0 45.4624 0
0 51.75 0
ITEM: ATOMS id type x y z
1 7 24.7814 19.8378 5.05959
ITEM: TIMESTEP
202000
ITEM: NUMBER OF ATOMS
1
ITEM: BOX BOUNDS xy xz yz pp pp pp
0 45.4624 0
0 45.4624 0
0 51.75 0
ITEM: ATOMS id type x y z
1 7 24.7447 20.3017 4.19116
ITEM: TIMESTEP
204000
ITEM: NUMBER OF ATOMS
1
ITEM: BOX BOUNDS xy xz yz pp pp pp
0 45.4624 0
0 45.4624 0
0 51.75 0
ITEM: ATOMS id type x y z
1 7 24.4634 20.5383 4.18495
ITEM: TIMESTEP
206000
ITEM: NUMBER OF ATOMS
1
ITEM: BOX BOUNDS xy xz yz pp pp pp
0 45.4624 0
0 45.4624 0
0 51.75 0
ITEM: ATOMS id type x y z
1 7 24.3717 20.9319 5.22072
ITEM: TIMESTEP
208000
ITEM: NUMBER OF ATOMS
1
ITEM: BOX BOUNDS xy xz yz pp pp pp
0 45.4624 0
0 45.4624 0
0 51.75 0
ITEM: ATOMS id type x y z
1 7 24.9525 21.9864 5.12223
ITEM: TIMESTEP
210000
ITEM: NUMBER OF ATOMS
1
ITEM: BOX BOUNDS xy xz yz pp pp pp
0 45.4624 0
0 45.4624 0
0 51.75 0
ITEM: ATOMS id type x y z
1 7 25.037 21.6504 4.97481
ITEM: TIMESTEP
212000
ITEM: NUMBER OF ATOMS
1
ITEM: BOX BOUNDS xy xz yz pp pp pp
0 45.4624 0
0 45.4624 0
0 51.75 0
ITEM: ATOMS id type x y z
1 7 24.5936 21.5222 4.69123
ITEM: TIMESTEP
214000
ITEM: NUMBER OF ATOMS
1
ITEM: BOX BOUNDS xy xz yz pp pp pp
0 45.4624 0
0 45.4624 0
0 51.75 0
ITEM: ATOMS id type x y z
1 7 24.4246 21.1726 4.10404
ITEM: TIMESTEP
216000
ITEM: NUMBER OF ATOMS
1
ITEM: BOX BOUNDS xy xz yz pp pp pp
0 45.4624 0
0 45.4624 0
0 51.75 0
ITEM: ATOMS id type x y z
1 7 24.5554 20.7415 3.3114
ITEM: TIMESTEP
218000
ITEM: NUMBER OF ATOMS
1
ITEM: BOX BOUNDS xy xz yz pp pp pp
0 45.4624 0
0 45.4624 0
0 51.75 0
ITEM: ATOMS id type x y z
1 7 24.7123 20.5854 2.74679
ITEM: TIMESTEP
220000
ITEM: NUMBER OF ATOMS
1
ITEM: BOX BOUNDS xy xz yz pp pp pp
0 45.4624 0
0 45.4624 0
0 51.75 0
ITEM: ATOMS id type x y z
1 7 24.9928 19.8429 2.8309
ITEM: TIMESTEP
222000
ITEM: NUMBER OF ATOMS
1
ITEM: BOX BOUNDS xy xz yz pp pp pp
0 45.4624 0
0 45.4624 0
0 51.75 0
ITEM: ATOMS id type x y z
1 7 25.0895 20.043 2.67466
ITEM: TIMESTEP
224000
ITEM: NUMBER OF ATOMS
1
ITEM: BOX BOUNDS xy xz yz pp pp pp
0 45.4624 0
0 45.4624 0
0 51.75 0
ITEM: ATOMS id type x y z
1 7 25.0332 19.2737 2.23451
ITEM: TIMESTEP
226000
ITEM: NUMBER OF ATOMS
1
ITEM: BOX BOUNDS xy xz yz pp pp pp
0 45.4624 0
0 45.4624 0
0 51.75 0
ITEM: ATOMS id type x y z
1 7 24.5911 18.5393 0.62981
ITEM: TIMESTEP
228000
ITEM: NUMBER OF ATOMS
1
ITEM: BOX BOUNDS xy xz yz pp pp pp
0 45.4624 0
0 45.4624 0
0 51.75 0
ITEM: ATOMS id type x y z
1 7 23.7139 17.6977 0.204576
ITEM: TIMESTEP
230000
ITEM: NUMBER OF ATOMS
1
ITEM: BOX BOUNDS xy xz yz pp pp pp
0 45.4624 0
0 45.4624 0
0 51.75 0
ITEM: ATOMS id type x y z
1 7 23.7527 17.4242 -0.0966
ITEM: TIMESTEP
232000
ITEM: NUMBER OF ATOMS
1
ITEM: BOX BOUNDS xy xz yz pp pp pp
0 45.4624 0
0 45.4624 0
0 51.75 0
ITEM: ATOMS id type x y z
1 7 24.6411 17.8075 0.468358
ITEM: TIMESTEP
234000
ITEM: NUMBER OF ATOMS
1
ITEM: BOX BOUNDS xy xz yz pp pp pp
0 45.4624 0
0 45.4624 0
0 51.75 0
ITEM: ATOMS id type x y z
1 7 24.7993 18.2582 1.83811
ITEM: TIMESTEP
236000
ITEM: NUMBER OF ATOMS
1
ITEM: BOX BOUNDS xy xz yz pp pp pp
0 45.4624 0
0 45.4624 0
0 51.75 0
ITEM: ATOMS id type x y z
1 7 25.5088 18.6882 2.50878
ITEM: TIMESTEP
238000
ITEM: NUMBER OF ATOMS
1
ITEM: BOX BOUNDS xy xz yz pp pp pp
0 45.4624 0
0 45.4624 0
0 51.75 0
ITEM: ATOMS id type x y z
1 7 25.3104 17.8712 2.88908
ITEM: TIMESTEP
240000
ITEM: NUMBER OF ATOMS
1
ITEM: BOX BOUNDS xy xz yz pp pp pp
0 45.4624 0
0 45.4624 0
0 51.75 0
ITEM: ATOMS id type x y z
1 7 25.4595 18.6845 2.56322
ITEM: TIMESTEP
242000
ITEM: NUMBER OF ATOMS
1
ITEM: BOX BOUNDS xy xz yz pp pp pp
0 45.4624 0
0 45.4624 0
0 51.75 0
ITEM: ATOMS id type x y z
1 7 25.6583 18.1308 2.6962
ITEM: TIMESTEP
244000
ITEM: NUMBER OF ATOMS
1
ITEM: BOX BOUNDS xy xz yz pp pp pp
0 45.4624 0
0 45.4624 0
0 51.75 0
ITEM: ATOMS id type x y z
1 7 26.2075 18.3662 3.19578
ITEM: TIMESTEP
246000
ITEM: NUMBER OF ATOMS
1
ITEM: BOX BOUNDS xy xz yz pp pp pp
0 45.4624 0
0 45.4624 0
0 51.75 0
ITEM: ATOMS id type x y z
1 7 26.2561 18.8175 4.56394
ITEM: TIMESTEP
248000
ITEM: NUMBER OF ATOMS
1
ITEM: BOX BOUNDS xy xz yz pp pp pp
0 45.4624 0
0 45.4624 0
0 51.75 0
ITEM: ATOMS id type x y z
1 7 26.1178 19.398 5.04334
ITEM: TIMESTEP
250000
ITEM: NUMBER OF ATOMS
1
ITEM: BOX BOUNDS xy xz yz pp pp pp
0 45.4624 0
0 45.4624 0
0 51.75 0
ITEM: ATOMS id type x y z
1 7 25.523 19.2166 5.10171
ITEM: TIMESTEP
252000
ITEM: NUMBER OF ATOMS
1
ITEM: BOX BOUNDS xy xz yz pp pp pp
0 45.4624 0
0 45.4624 0
0 51.75 0
ITEM: ATOMS id type x y z
1 7 24.7811 18.4854 5.0588
ITEM: TIMESTEP
254000
ITEM: NUMBER OF ATOMS
1
ITEM: BOX BOUNDS xy xz yz pp pp pp
0 45.4624 0
0 45.4624 0
0 51.75 0
ITEM: ATOMS id type x y z
1 7 23.8613 18.3288 4.69752
ITEM: TIMESTEP
256000
ITEM: NUMBER OF ATOMS
1
ITEM: BOX BOUNDS xy xz yz pp pp pp
0 45.4624 0
0 45.4624 0
0 51.75 0
ITEM: ATOMS id type x y z
1 7 23.0756 18.1912 4.74348
ITEM: TIMESTEP
258000
ITEM: NUMBER OF ATOMS
1
ITEM: BOX BOUNDS xy xz yz pp pp pp
0 45.4624 0
0 45.4624 0
0 51.75 0
ITEM: ATOMS id type x y z
1 7 22.847 18.3154 4.79047
ITEM: TIMESTEP
260000
ITEM: NUMBER OF ATOMS
1
ITEM: BOX BOUNDS xy xz yz pp pp pp
0 45.4624 0
0 45.4624 0
0 51.75 0
ITEM: ATOMS id type x y z
1 7 22.8511 17.9613 4.41649
ITEM: TIMESTEP
262000
ITEM: NUMBER OF ATOMS
1
ITEM: BOX BOUNDS xy xz yz pp pp pp
0 45.4624 0
0 45.4624 0
0 51.75 0
ITEM: ATOMS id type x y z
1 7 23.1047 18.3924 4.65926
ITEM: TIMESTEP
264000
ITEM: NUMBER OF ATOMS
1
ITEM: BOX BOUNDS xy xz yz pp pp pp
0 45.4624 0
0 45.4624 0
0 51.75 0
ITEM: ATOMS id type x y z
1 7 23.3515 18.3895 4.76155
ITEM: TIMESTEP
266000
ITEM: NUMBER OF ATOMS
1
ITEM: BOX BOUNDS xy xz yz pp pp pp
0 45.4624 0
0 45.4624 0
0 51.75 0
ITEM: ATOMS id type x y z
1 7 23.107 18.3221 4.99011
ITEM: TIMESTEP
268000
ITEM: NUMBER OF ATOMS
1
ITEM: BOX BOUNDS xy xz yz pp pp pp
0 45.4624 0
0 45.4624 0
0 51.75 0
ITEM: ATOMS id type x y z
1 7 23.2037 18.5131 5.28354
ITEM: TIMESTEP
270000
ITEM: NUMBER OF ATOMS
1
ITEM: BOX BOUNDS xy xz yz pp pp pp
0 45.4624 0
0 45.4624 0
0 51.75 0
ITEM: ATOMS id type x y z
1 7 23.2052 18.6407 5.81256
ITEM: TIMESTEP
272000
ITEM: NUMBER OF ATOMS
1
ITEM: BOX BOUNDS xy xz yz pp pp pp
0 45.4624 0
0 45.4624 0
0 51.75 0
ITEM: ATOMS id type x y z
1 7 23.2798 18.4759 6.47283
ITEM: TIMESTEP
274000
ITEM: NUMBER OF ATOMS
1
ITEM: BOX BOUNDS xy xz yz pp pp pp
0 45.4624 0
0 45.4624 0
0 51.75 0
ITEM: ATOMS id type x y z
1 7 23.3658 19.276 7.71734
ITEM: TIMESTEP
276000
ITEM: NUMBER OF ATOMS
1
ITEM: BOX BOUNDS xy xz yz pp pp pp
0 45.4624 0
0 45.4624 0
0 51.75 0
ITEM: ATOMS id type x y z
1 7 24.3654 20.2089 8.11618
ITEM: TIMESTEP
278000
ITEM: NUMBER OF ATOMS
1
ITEM: BOX BOUNDS xy xz yz pp pp pp
0 45.4624 0
0 45.4624 0
0 51.75 0
ITEM: ATOMS id type x y z
1 7 24.3225 20.5137 8.72891
ITEM: TIMESTEP
280000
ITEM: NUMBER OF ATOMS
1
ITEM: BOX BOUNDS xy xz yz pp pp pp
0 45.4624 0
0 45.4624 0
0 51.75 0
ITEM: ATOMS id type x y z
1 7 24.1239 20.8268 8.57825
ITEM: TIMESTEP
282000
ITEM: NUMBER OF ATOMS
1
ITEM: BOX BOUNDS xy xz yz pp pp pp
0 45.4624 0
0 45.4624 0
0 51.75 0
ITEM: ATOMS id type x y z
1 7 23.9224 20.2566 7.72084
ITEM: TIMESTEP
284000
ITEM: NUMBER OF ATOMS
1
ITEM: BOX BOUNDS xy xz yz pp pp pp
0 45.4624 0
0 45.4624 0
0 51.75 0
ITEM: ATOMS id type x y z
1 7 23.5345 19.6678 6.4012
ITEM: TIMESTEP
286000
ITEM: NUMBER OF ATOMS
1
ITEM: BOX BOUNDS xy xz yz pp pp pp
0 45.4624 0
0 45.4624 0
0 51.75 0
ITEM: ATOMS id type x y z
1 7 23.3119 19.6872 5.84736
ITEM: TIMESTEP
288000
ITEM: NUMBER OF ATOMS
1
ITEM: BOX BOUNDS xy xz yz pp pp pp
0 45.4624 0
0 45.4624 0
0 51.75 0
ITEM: ATOMS id type x y z
1 7 23.7364 19.887 5.57572
ITEM: TIMESTEP
290000
ITEM: NUMBER OF ATOMS
1
ITEM: BOX BOUNDS xy xz yz pp pp pp
0 45.4624 0
0 45.4624 0
0 51.75 0
ITEM: ATOMS id type x y z
1 7 24.4356 19.8899 4.85118
ITEM: TIMESTEP
292000
ITEM: NUMBER OF ATOMS
1
ITEM: BOX BOUNDS xy xz yz pp pp pp
0 45.4624 0
0 45.4624 0
0 51.75 0
ITEM: ATOMS id type x y z
1 7 24.6624 19.8511 4.80241
ITEM: TIMESTEP
294000
ITEM: NUMBER OF ATOMS
1
ITEM: BOX BOUNDS xy xz yz pp pp pp
0 45.4624 0
0 45.4624 0
0 51.75 0
ITEM: ATOMS id type x y z
1 7 25.7076 19.8003 4.42792
ITEM: TIMESTEP
296000
ITEM: NUMBER OF ATOMS
1
ITEM: BOX BOUNDS xy xz yz pp pp pp
0 45.4624 0
0 45.4624 0
0 51.75 0
ITEM: ATOMS id type x y z
1 7 25.5968 19.7296 3.98763
ITEM: TIMESTEP
298000
ITEM: NUMBER OF ATOMS
1
ITEM: BOX BOUNDS xy xz yz pp pp pp
0 45.4624 0
0 45.4624 0
0 51.75 0
ITEM: ATOMS id type x y z
1 7 26.0886 19.485 4.70932
ITEM: TIMESTEP
300000
ITEM: NUMBER OF ATOMS
1
ITEM: BOX BOUNDS xy xz yz pp pp pp
0 45.4624 0
0 45.4624 0
0 51.75 0
ITEM: ATOMS id type x y z
1 7 26.0512 19.7592 4.69895
ITEM: TIMESTEP
302000
ITEM: NUMBER OF ATOMS
1
ITEM: BOX BOUNDS xy xz yz pp pp pp
0 45.4624 0
0 45.4624 0
0 51.75 0
ITEM: ATOMS id type x y z
1 7 25.9525 19.4227 4.34295
ITEM: TIMESTEP
304000
ITEM: NUMBER OF ATOMS
1
ITEM: BOX BOUNDS xy xz yz pp pp pp
0 45.4624 0
0 45.4624 0
0 51.75 0
ITEM: ATOMS id type x y z
1 7 25.0739 19.2133 3.96631
ITEM: TIMESTEP
306000
ITEM: NUMBER OF ATOMS
1
ITEM: BOX BOUNDS xy xz yz pp pp pp
0 45.4624 0
0 45.4624 0
0 51.75 0
ITEM: ATOMS id type x y z
1 7 25.2472 19.1195 3.92429
ITEM: TIMESTEP
308000
ITEM: NUMBER OF ATOMS
1
ITEM: BOX BOUNDS xy xz yz pp pp pp
0 45.4624 0
0 45.4624 0
0 51.75 0
ITEM: ATOMS id type x y z
1 7 25.3229 19.69 4.56239
ITEM: TIMESTEP
310000
ITEM: NUMBER OF ATOMS
1
ITEM: BOX BOUNDS xy xz yz pp pp pp
0 45.4624 0
0 45.4624 0
0 51.75 0
ITEM: ATOMS id type x y z
1 7 25.4107 20.1213 4.96486
ITEM: TIMESTEP
312000
ITEM: NUMBER OF ATOMS
1
ITEM: BOX BOUNDS xy xz yz pp pp pp
0 45.4624 0
0 45.4624 0
0 51.75 0
ITEM: ATOMS id type x y z
1 7 25.4398 20.2345 4.69923
ITEM: TIMESTEP
314000
ITEM: NUMBER OF ATOMS
1
ITEM: BOX BOUNDS xy xz yz pp pp pp
0 45.4624 0
0 45.4624 0
0 51.75 0
ITEM: ATOMS id type x y z
1 7 24.8173 19.6991 4.49799
ITEM: TIMESTEP
316000
ITEM: NUMBER OF ATOMS
1
ITEM: BOX BOUNDS xy xz yz pp pp pp
0 45.4624 0
0 45.4624 0
0 51.75 0
ITEM: ATOMS id type x y z
1 7 24.3653 19.1082 4.38623
ITEM: TIMESTEP
318000
ITEM: NUMBER OF ATOMS
1
ITEM: BOX BOUNDS xy xz yz pp pp pp
0 45.4624 0
0 45.4624 0
0 51.75 0
ITEM: ATOMS id type x y z
1 7 23.4771 19.2492 4.09295
ITEM: TIMESTEP
320000
ITEM: NUMBER OF ATOMS
1
ITEM: BOX BOUNDS xy xz yz pp pp pp
0 45.4624 0
0 45.4624 0
0 51.75 0
ITEM: ATOMS id type x y z
1 7 23.7219 18.9436 4.08516
ITEM: TIMESTEP
322000
ITEM: NUMBER OF ATOMS
1
ITEM: BOX BOUNDS xy xz yz pp pp pp
0 45.4624 0
0 45.4624 0
0 51.75 0
ITEM: ATOMS id type x y z
1 7 24.2138 19.5606 4.80436
ITEM: TIMESTEP
324000
ITEM: NUMBER OF ATOMS
1
ITEM: BOX BOUNDS xy xz yz pp pp pp
0 45.4624 0
0 45.4624 0
0 51.75 0
ITEM: ATOMS id type x y z
1 7 24.6884 19.7598 5.81759
ITEM: TIMESTEP
326000
ITEM: NUMBER OF ATOMS
1
ITEM: BOX BOUNDS xy xz yz pp pp pp
0 45.4624 0
0 45.4624 0
0 51.75 0
ITEM: ATOMS id type x y z
1 7 24.8078 20.0356 5.83364
ITEM: TIMESTEP
328000
ITEM: NUMBER OF ATOMS
1
ITEM: BOX BOUNDS xy xz yz pp pp pp
0 45.4624 0
0 45.4624 0
0 51.75 0
ITEM: ATOMS id type x y z
1 7 24.5044 19.4087 5.25793
ITEM: TIMESTEP
330000
ITEM: NUMBER OF ATOMS
1
ITEM: BOX BOUNDS xy xz yz pp pp pp
0 45.4624 0
0 45.4624 0
0 51.75 0
ITEM: ATOMS id type x y z
1 7 24.2333 19.5539 4.46651
ITEM: TIMESTEP
332000
ITEM: NUMBER OF ATOMS
1
ITEM: BOX BOUNDS xy xz yz pp pp pp
0 45.4624 0
0 45.4624 0
0 51.75 0
ITEM: ATOMS id type x y z
1 7 24.2623 19.1405 4.84609
ITEM: TIMESTEP
334000
ITEM: NUMBER OF ATOMS
1
ITEM: BOX BOUNDS xy xz yz pp pp pp
0 45.4624 0
0 45.4624 0
0 51.75 0
ITEM: ATOMS id type x y z
1 7 24.8759 19.7413 4.89363
ITEM: TIMESTEP
336000
ITEM: NUMBER OF ATOMS
1
ITEM: BOX BOUNDS xy xz yz pp pp pp
0 45.4624 0
0 45.4624 0
0 51.75 0
ITEM: ATOMS id type x y z
1 7 25.067 20.2482 6.00822
ITEM: TIMESTEP
338000
ITEM: NUMBER OF ATOMS
1
ITEM: BOX BOUNDS xy xz yz pp pp pp
0 45.4624 0
0 45.4624 0
0 51.75 0
ITEM: ATOMS id type x y z
1 7 25.3981 20.1281 6.92115
ITEM: TIMESTEP
340000
ITEM: NUMBER OF ATOMS
1
ITEM: BOX BOUNDS xy xz yz pp pp pp
0 45.4624 0
0 45.4624 0
0 51.75 0
ITEM: ATOMS id type x y z
1 7 25.3685 20.431 7.39711
ITEM: TIMESTEP
342000
ITEM: NUMBER OF ATOMS
1
ITEM: BOX BOUNDS xy xz yz pp pp pp
0 45.4624 0
0 45.4624 0
0 51.75 0
ITEM: ATOMS id type x y z
1 7 25.5052 20.2969 7.61063
ITEM: TIMESTEP
344000
ITEM: NUMBER OF ATOMS
1
ITEM: BOX BOUNDS xy xz yz pp pp pp
0 45.4624 0
0 45.4624 0
0 51.75 0
ITEM: ATOMS id type x y z
1 7 25.3207 20.321 7.26595
ITEM: TIMESTEP
346000
ITEM: NUMBER OF ATOMS
1
ITEM: BOX BOUNDS xy xz yz pp pp pp
0 45.4624 0
0 45.4624 0
0 51.75 0
ITEM: ATOMS id type x y z
1 7 25.3608 20.2383 7.49843
ITEM: TIMESTEP
348000
ITEM: NUMBER OF ATOMS
1
ITEM: BOX BOUNDS xy xz yz pp pp pp
0 45.4624 0
0 45.4624 0
0 51.75 0
ITEM: ATOMS id type x y z
1 7 25.7701 21.2718 7.89603
ITEM: TIMESTEP
350000
ITEM: NUMBER OF ATOMS
1
ITEM: BOX BOUNDS xy xz yz pp pp pp
0 45.4624 0
0 45.4624 0
0 51.75 0
ITEM: ATOMS id type x y z
1 7 25.8174 21.0295 8.41708
ITEM: TIMESTEP
352000
ITEM: NUMBER OF ATOMS
1
ITEM: BOX BOUNDS xy xz yz pp pp pp
0 45.4624 0
0 45.4624 0
0 51.75 0
ITEM: ATOMS id type x y z
1 7 25.1762 20.5445 7.40251
ITEM: TIMESTEP
354000
ITEM: NUMBER OF ATOMS
1
ITEM: BOX BOUNDS xy xz yz pp pp pp
0 45.4624 0
0 45.4624 0
0 51.75 0
ITEM: ATOMS id type x y z
1 7 24.796 20.3916 6.84381
ITEM: TIMESTEP
356000
ITEM: NUMBER OF ATOMS
1
ITEM: BOX BOUNDS xy xz yz pp pp pp
0 45.4624 0
0 45.4624 0
0 51.75 0
ITEM: ATOMS id type x y z
1 7 25.5409 20.8779 7.80211
ITEM: TIMESTEP
358000
ITEM: NUMBER OF ATOMS
1
ITEM: BOX BOUNDS xy xz yz pp pp pp
0 45.4624 0
0 45.4624 0
0 51.75 0
ITEM: ATOMS id type x y z
1 7 25.7182 21.9071 8.30332
ITEM: TIMESTEP
360000
ITEM: NUMBER OF ATOMS
1
ITEM: BOX BOUNDS xy xz yz pp pp pp
0 45.4624 0
0 45.4624 0
0 51.75 0
ITEM: ATOMS id type x y z
1 7 25.6778 22.3846 8.17581
ITEM: TIMESTEP
362000
ITEM: NUMBER OF ATOMS
1
ITEM: BOX BOUNDS xy xz yz pp pp pp
0 45.4624 0
0 45.4624 0
0 51.75 0
ITEM: ATOMS id type x y z
1 7 25.525 21.8826 7.44073
ITEM: TIMESTEP
364000
ITEM: NUMBER OF ATOMS
1
ITEM: BOX BOUNDS xy xz yz pp pp pp
0 45.4624 0
0 45.4624 0
0 51.75 0
ITEM: ATOMS id type x y z
1 7 25.134 22.0019 7.11587