ITEM: TIMESTEP
10000
ITEM: NUMBER OF ATOMS
1
ITEM: BOX BOUNDS xy xz yz pp pp pp
0 45.4624 0
0 45.4624 0
0 51.75 0
ITEM: ATOMS id type x y z
1 7 22.4091 20.7391 4.95573
ITEM: TIMESTEP
12000
ITEM: NUMBER OF ATOMS
1
ITEM: BOX BOUNDS xy xz yz pp pp pp
0 45.4624 0
0 45.4624 0
0 51.75 0
ITEM: ATOMS id type x y z
1 7 22.7138 20.6176 5.25158
ITEM: TIMESTEP
14000
ITEM: NUMBER OF ATOMS
1
ITEM: BOX BOUNDS xy xz yz pp pp pp
0 45.4624 0
0 45.4624 0
0 51.75 0
ITEM: ATOMS id type x y z
1 7 23.9863 23.2333 6.45972
ITEM: TIMESTEP
16000
ITEM: NUMBER OF ATOMS
1
ITEM: BOX BOUNDS xy xz yz pp pp pp
0 45.4624 0
0 45.4624 0
0 51.75 0
ITEM: ATOMS id type x y z
1 7 23.5718 25.2787 7.96445
ITEM: TIMESTEP
18000
ITEM: NUMBER OF ATOMS
1
ITEM: BOX BOUNDS xy xz yz pp pp pp
0 45.4624 0
0 45.4624 0
0 51.75 0
ITEM: ATOMS id type x y z
1 7 22.3269 27.573 9.78679
ITEM: TIMESTEP
20000
ITEM: NUMBER OF ATOMS
1
ITEM: BOX BOUNDS xy xz yz pp pp pp
0 45.4624 0
0 45.4624 0
0 51.75 0
ITEM: ATOMS id type x y z
1 7 22.9605 30.6384 11.6576
ITEM: TIMESTEP
22000
ITEM: NUMBER OF ATOMS
1
ITEM: BOX BOUNDS xy xz yz pp pp pp
0 45.4624 0
0 45.4624 0
0 51.75 0
ITEM: ATOMS id type x y z
1 7 24.6093 29.3863 11.4567
ITEM: TIMESTEP
24000
ITEM: NUMBER OF ATOMS
1
ITEM: BOX BOUNDS xy xz yz pp pp pp
0 45.4624 0
0 45.4624 0
0 51.75 0
ITEM: ATOMS id type x y z
1 7 23.9778 29.7749 12.1717
ITEM: TIMESTEP
26000
ITEM: NUMBER OF ATOMS
1
ITEM: BOX BOUNDS xy xz yz pp pp pp
0 45.4624 0
0 45.4624 0
0 51.75 0
ITEM: ATOMS id type x y z
1 7 24.6007 29.0686 11.4964
ITEM: TIMESTEP
28000
ITEM: NUMBER OF ATOMS
1
ITEM: BOX BOUNDS xy xz yz pp pp pp
0 45.4624 0
0 45.4624 0
0 51.75 0
ITEM: ATOMS id type x y z
1 7 22.8172 28.935 9.61495
ITEM: TIMESTEP
30000
ITEM: NUMBER OF ATOMS
1
ITEM: BOX BOUNDS xy xz yz pp pp pp
0 45.4624 0
0 45.4624 0
0 51.75 0
ITEM: ATOMS id type x y z
1 7 22.1085 29.978 8.06387
ITEM: TIMESTEP
32000
ITEM: NUMBER OF ATOMS
1
ITEM: BOX BOUNDS xy xz yz pp pp pp
0 45.4624 0
0 45.4624 0
0 51.75 0
ITEM: ATOMS id type x y z
1 7 23.3218 28.7118 6.74889
ITEM: TIMESTEP
34000
ITEM: NUMBER OF ATOMS
1
ITEM: BOX BOUNDS xy xz yz pp pp pp
0 45.4624 0
0 45.4624 0
0 51.75 0
ITEM: ATOMS id type x y z
1 7 24.3234 28.925 6.44863
ITEM: TIMESTEP
36000
ITEM: NUMBER OF ATOMS
1
ITEM: BOX BOUNDS xy xz yz pp pp pp
0 45.4624 0
0 45.4624 0
0 51.75 0
ITEM: ATOMS id type x y z
1 7 23.0249 30.3899 7.58785
ITEM: TIMESTEP
38000
ITEM: NUMBER OF ATOMS
1
ITEM: BOX BOUNDS xy xz yz pp pp pp
0 45.4624 0
0 45.4624 0
0 51.75 0
ITEM: ATOMS id type x y z
1 7 22.5119 31.2974 8.87338
ITEM: TIMESTEP
40000
ITEM: NUMBER OF ATOMS
1
ITEM: BOX BOUNDS xy xz yz pp pp pp
0 45.4624 0
0 45.4624 0
0 51.75 0
ITEM: ATOMS id type x y z
1 7 23.6946 31.5422 9.22712
ITEM: TIMESTEP
42000
ITEM: NUMBER OF ATOMS
1
ITEM: BOX BOUNDS xy xz yz pp pp pp
0 45.4624 0
0 45.4624 0
0 51.75 0
ITEM: ATOMS id type x y z
1 7 23.4177 31.5928 10.5596
ITEM: TIMESTEP
44000
ITEM: NUMBER OF ATOMS
1
ITEM: BOX BOUNDS xy xz yz pp pp pp
0 45.4624 0
0 45.4624 0
0 51.75 0
ITEM: ATOMS id type x y z
1 7 23.0714 30.6678 10.1869
ITEM: TIMESTEP
46000
ITEM: NUMBER OF ATOMS
1
ITEM: BOX BOUNDS xy xz yz pp pp pp
0 45.4624 0
0 45.4624 0
0 51.75 0
ITEM: ATOMS id type x y z
1 7 23.269 30.3956 10.4086
ITEM: TIMESTEP
48000
ITEM: NUMBER OF ATOMS
1
ITEM: BOX BOUNDS xy xz yz pp pp pp
0 45.4624 0
0 45.4624 0
0 51.75 0
ITEM: ATOMS id type x y z
1 7 23.2097 29.7206 11.5119
ITEM: TIMESTEP
50000
ITEM: NUMBER OF ATOMS
1
ITEM: BOX BOUNDS xy xz yz pp pp pp
0 45.4624 0
0 45.4624 0
0 51.75 0
ITEM: ATOMS id type x y z
1 7 24.2102 28.6099 11.5927
ITEM: TIMESTEP
52000
ITEM: NUMBER OF ATOMS
1
ITEM: BOX BOUNDS xy xz yz pp pp pp
0 45.4624 0
0 45.4624 0
0 51.75 0
ITEM: ATOMS id type x y z
1 7 24.0788 28.5282 11.1582
ITEM: TIMESTEP
54000
ITEM: NUMBER OF ATOMS
1
ITEM: BOX BOUNDS xy xz yz pp pp pp
0 45.4624 0
0 45.4624 0
0 51.75 0
ITEM: ATOMS id type x y z
1 7 24.0425 28.3916 11.6736
ITEM: TIMESTEP
56000
ITEM: NUMBER OF ATOMS
1
ITEM: BOX BOUNDS xy xz yz pp pp pp
0 45.4624 0
0 45.4624 0
0 51.75 0
ITEM: ATOMS id type x y z
1 7 23.8945 27.5746 10.3133
ITEM: TIMESTEP
58000
ITEM: NUMBER OF ATOMS
1
ITEM: BOX BOUNDS xy xz yz pp pp pp
0 45.4624 0
0 45.4624 0
0 51.75 0
ITEM: ATOMS id type x y z
1 7 24.9829 27.1675 10.7825
ITEM: TIMESTEP
60000
ITEM: NUMBER OF ATOMS
1
ITEM: BOX BOUNDS xy xz yz pp pp pp
0 45.4624 0
0 45.4624 0
0 51.75 0
ITEM: ATOMS id type x y z
1 7 24.7413 26.7601 12.1681
ITEM: TIMESTEP
62000
ITEM: NUMBER OF ATOMS
1
ITEM: BOX BOUNDS xy xz yz pp pp pp
0 45.4624 0
0 45.4624 0
0 51.75 0
ITEM: ATOMS id type x y z
1 7 22.8398 26.4743 11.9001
ITEM: TIMESTEP
64000
ITEM: NUMBER OF ATOMS
1
ITEM: BOX BOUNDS xy xz yz pp pp pp
0 45.4624 0
0 45.4624 0
0 51.75 0
ITEM: ATOMS id type x y z
1 7 22.0456 26.8686 11.4495
ITEM: TIMESTEP
66000
ITEM: NUMBER OF ATOMS
1
ITEM: BOX BOUNDS xy xz yz pp pp pp
0 45.4624 0
0 45.4624 0
0 51.75 0
ITEM: ATOMS id type x y z
1 7 22.9983 26.67 11.2677
ITEM: TIMESTEP
68000
ITEM: NUMBER OF ATOMS
1
ITEM: BOX BOUNDS xy xz yz pp pp pp
0 45.4624 0
0 45.4624 0
0 51.75 0
ITEM: ATOMS id type x y z
1 7 21.9329 26.1822 11.2806
ITEM: TIMESTEP
70000
ITEM: NUMBER OF ATOMS
1
ITEM: BOX BOUNDS xy xz yz pp pp pp
0 45.4624 0
0 45.4624 0
0 51.75 0
ITEM: ATOMS id type x y z
1 7 21.9707 27.445 12.0966
ITEM: TIMESTEP
72000
ITEM: NUMBER OF ATOMS
1
ITEM: BOX BOUNDS xy xz yz pp pp pp
0 45.4624 0
0 45.4624 0
0 51.75 0
ITEM: ATOMS id type x y z
1 7 21.9952 28.4885 10.6612
ITEM: TIMESTEP
74000
ITEM: NUMBER OF ATOMS
1
ITEM: BOX BOUNDS xy xz yz pp pp pp
0 45.4624 0
0 45.4624 0
0 51.75 0
ITEM: ATOMS id type x y z
1 7 22.454 28.3566 10.9774
ITEM: TIMESTEP
76000
ITEM: NUMBER OF ATOMS
1
ITEM: BOX BOUNDS xy xz yz pp pp pp
0 45.4624 0
0 45.4624 0
0 51.75 0
ITEM: ATOMS id type x y z
1 7 22.9528 30.4524 11.575
ITEM: TIMESTEP
78000
ITEM: NUMBER OF ATOMS
1
ITEM: BOX BOUNDS xy xz yz pp pp pp
0 45.4624 0
0 45.4624 0
0 51.75 0
ITEM: ATOMS id type x y z
1 7 22.5277 30.4243 11.7081
ITEM: TIMESTEP
80000
ITEM: NUMBER OF ATOMS
1
ITEM: BOX BOUNDS xy xz yz pp pp pp
0 45.4624 0
0 45.4624 0
0 51.75 0
ITEM: ATOMS id type x y z
1 7 23.6345 31.5066 11.1169
ITEM: TIMESTEP
82000
ITEM: NUMBER OF ATOMS
1
ITEM: BOX BOUNDS xy xz yz pp pp pp
0 45.4624 0
0 45.4624 0
0 51.75 0
ITEM: ATOMS id type x y z
1 7 24.8412 30.8201 10.7732
ITEM: TIMESTEP
84000
ITEM: NUMBER OF ATOMS
1
ITEM: BOX BOUNDS xy xz yz pp pp pp
0 45.4624 0
0 45.4624 0
0 51.75 0
ITEM: ATOMS id type x y z
1 7 25.3675 30.9294 9.72453
ITEM: TIMESTEP
86000
ITEM: NUMBER OF ATOMS
1
ITEM: BOX BOUNDS xy xz yz pp pp pp
0 45.4624 0
0 45.4624 0
0 51.75 0
ITEM: ATOMS id type x y z
1 7 25.9027 30.4907 9.27412
ITEM: TIMESTEP
88000
ITEM: NUMBER OF ATOMS
1
ITEM: BOX BOUNDS xy xz yz pp pp pp
0 45.4624 0
0 45.4624 0
0 51.75 0
ITEM: ATOMS id type x y z
1 7 26.3873 30.1515 8.91987
ITEM: TIMESTEP
90000
ITEM: NUMBER OF ATOMS
1
ITEM: BOX BOUNDS xy xz yz pp pp pp
0 45.4624 0
0 45.4624 0
0 51.75 0
ITEM: ATOMS id type x y z
1 7 26.1742 30.3342 10.0615
ITEM: TIMESTEP
92000
ITEM: NUMBER OF ATOMS
1
ITEM: BOX BOUNDS xy xz yz pp pp pp
0 45.4624 0
0 45.4624 0
0 51.75 0
ITEM: ATOMS id type x y z
1 7 27.3364 31.4773 10.8438
ITEM: TIMESTEP
94000
ITEM: NUMBER OF ATOMS
1
ITEM: BOX BOUNDS xy xz yz pp pp pp
0 45.4624 0
0 45.4624 0
0 51.75 0
ITEM: ATOMS id type x y z
1 7 26.1779 32.2136 10.5497
ITEM: TIMESTEP
96000
ITEM: NUMBER OF ATOMS
1
ITEM: BOX BOUNDS xy xz yz pp pp pp
0 45.4624 0
0 45.4624 0
0 51.75 0
ITEM: ATOMS id type x y z
1 7 25.577 31.3956 11.3581
ITEM: TIMESTEP
98000
ITEM: NUMBER OF ATOMS
1
ITEM: BOX BOUNDS xy xz yz pp pp pp
0 45.4624 0
0 45.4624 0
0 51.75 0
ITEM: ATOMS id type x y z
1 7 26.8976 31.044 13.1642
ITEM: TIMESTEP
100000
ITEM: NUMBER OF ATOMS
1
ITEM: BOX BOUNDS xy xz yz pp pp pp
0 45.4624 0
0 45.4624 0
0 51.75 0
ITEM: ATOMS id type x y z
1 7 27.0198 29.7908 13.85
ITEM: TIMESTEP
102000
ITEM: NUMBER OF ATOMS
1
ITEM: BOX BOUNDS xy xz yz pp pp pp
0 45.4624 0
0 45.4624 0
0 51.75 0
ITEM: ATOMS id type x y z
1 7 27.1361 28.7373 14.3077
ITEM: TIMESTEP
104000
ITEM: NUMBER OF ATOMS
1
ITEM: BOX BOUNDS xy xz yz pp pp pp
0 45.4624 0
0 45.4624 0
0 51.75 0
ITEM: ATOMS id type x y z
1 7 26.6571 27.3054 13.8324
ITEM: TIMESTEP
106000
ITEM: NUMBER OF ATOMS
1
ITEM: BOX BOUNDS xy xz yz pp pp pp
0 45.4624 0
0 45.4624 0
0 51.75 0
ITEM: ATOMS id type x y z
1 7 26.8014 26.8831 13.6451
ITEM: TIMESTEP
108000
ITEM: NUMBER OF ATOMS
1
ITEM: BOX BOUNDS xy xz yz pp pp pp
0 45.4624 0
0 45.4624 0
0 51.75 0
ITEM: ATOMS id type x y z
1 7 25.6912 27.9259 13.0294
ITEM: TIMESTEP
110000
ITEM: NUMBER OF ATOMS
1
ITEM: BOX BOUNDS xy xz yz pp pp pp
0 45.4624 0
0 45.4624 0
0 51.75 0
ITEM: ATOMS id type x y z
1 7 25.3314 27.9166 10.9053
ITEM: TIMESTEP
112000
ITEM: NUMBER OF ATOMS
1
ITEM: BOX BOUNDS xy xz yz pp pp pp
0 45.4624 0
0 45.4624 0
0 51.75 0
ITEM: ATOMS id type x y z
1 7 23.4438 27.2814 10.5132
ITEM: TIMESTEP
114000
ITEM: NUMBER OF ATOMS
1
ITEM: BOX BOUNDS xy xz yz pp pp pp
0 45.4624 0
0 45.4624 0
0 51.75 0
ITEM: ATOMS id type x y z
1 7 23.0113 27.3834 10.704
ITEM: TIMESTEP
116000
ITEM: NUMBER OF ATOMS
1
ITEM: BOX BOUNDS xy xz yz pp pp pp
0 45.4624 0
0 45.4624 0
0 51.75 0
ITEM: ATOMS id type x y z
1 7 24.0077 26.8154 10.9671
ITEM: TIMESTEP
118000
ITEM: NUMBER OF ATOMS
1
ITEM: BOX BOUNDS xy xz yz pp pp pp
0 45.4624 0
0 45.4624 0
0 51.75 0
ITEM: ATOMS id type x y z
1 7 23.6374 26.1615 11.9202
ITEM: TIMESTEP
120000
ITEM: NUMBER OF ATOMS
1
ITEM: BOX BOUNDS xy xz yz pp pp pp
0 45.4624 0
0 45.4624 0
0 51.75 0
ITEM: ATOMS id type x y z
1 7 23.2803 25.7362 12.0975
ITEM: TIMESTEP
122000
ITEM: NUMBER OF ATOMS
1
ITEM: BOX BOUNDS xy xz yz pp pp pp
0 45.4624 0
0 45.4624 0
0 51.75 0
ITEM: ATOMS id type x y z
1 7 23.1984 26.5311 11.4681
ITEM: TIMESTEP
124000
ITEM: NUMBER OF ATOMS
1
ITEM: BOX BOUNDS xy xz yz pp pp pp
0 45.4624 0
0 45.4624 0
0 51.75 0
ITEM: ATOMS id type x y z
1 7 22.3098 27.088 11.3067
ITEM: TIMESTEP
126000
ITEM: NUMBER OF ATOMS
1
ITEM: BOX BOUNDS xy xz yz pp pp pp
0 45.4624 0
0 45.4624 0
0 51.75 0
ITEM: ATOMS id type x y z
1 7 22.7213 27.4607 11.1421
ITEM: TIMESTEP
128000
ITEM: NUMBER OF ATOMS
1
ITEM: BOX BOUNDS xy xz yz pp pp pp
0 45.4624 0
0 45.4624 0
0 51.75 0
ITEM: ATOMS id type x y z
1 7 23.0565 27.3861 11.0183
ITEM: TIMESTEP
130000
ITEM: NUMBER OF ATOMS
1
ITEM: BOX BOUNDS xy xz yz pp pp pp
0 45.4624 0
0 45.4624 0
0 51.75 0
ITEM: ATOMS id type x y z
1 7 23.3805 27.5661 11.6983
ITEM: TIMESTEP
132000
ITEM: NUMBER OF ATOMS
1
ITEM: BOX BOUNDS xy xz yz pp pp pp
0 45.4624 0
0 45.4624 0
0 51.75 0
ITEM: ATOMS id type x y z
1 7 23.1358 27.2982 11.3246
ITEM: TIMESTEP
134000
ITEM: NUMBER OF ATOMS
1
ITEM: BOX BOUNDS xy xz yz pp pp pp
0 45.4624 0
0 45.4624 0
0 51.75 0
ITEM: ATOMS id type x y z
1 7 23.0367 28.1204 10.6981
ITEM: TIMESTEP
136000
ITEM: NUMBER OF ATOMS
1
ITEM: BOX BOUNDS xy xz yz pp pp pp
0 45.4624 0
0 45.4624 0
0 51.75 0
ITEM: ATOMS id type x y z
1 7 22.4572 28.8593 10.0311
ITEM: TIMESTEP
138000
ITEM: NUMBER OF ATOMS
1
ITEM: BOX BOUNDS xy xz yz pp pp pp
0 45.4624 0
0 45.4624 0
0 51.75 0
ITEM: ATOMS id type x y z
1 7 22.0819 29.8197 9.79368
ITEM: TIMESTEP
140000
ITEM: NUMBER OF ATOMS
1
ITEM: BOX BOUNDS xy xz yz pp pp pp
0 45.4624 0
0 45.4624 0
0 51.75 0
ITEM: ATOMS id type x y z
1 7 22.463 29.4751 10.4458
ITEM: TIMESTEP
142000
ITEM: NUMBER OF ATOMS
1
ITEM: BOX BOUNDS xy xz yz pp pp pp
0 45.4624 0
0 45.4624 0
0 51.75 0
ITEM: ATOMS id type x y z
1 7 22.7785 29.65 11.2186
ITEM: TIMESTEP
144000
ITEM: NUMBER OF ATOMS
1
ITEM: BOX BOUNDS xy xz yz pp pp pp
0 45.4624 0
0 45.4624 0
0 51.75 0
ITEM: ATOMS id type x y z
1 7 22.6381 29.3467 12.2742
ITEM: TIMESTEP
146000
ITEM: NUMBER OF ATOMS
1
ITEM: BOX BOUNDS xy xz yz pp pp pp
0 45.4624 0
0 45.4624 0
0 51.75 0
ITEM: ATOMS id type x y z
1 7 23.2545 29.9667 12.3912
ITEM: TIMESTEP
148000
ITEM: NUMBER OF ATOMS
1
ITEM: BOX BOUNDS xy xz yz pp pp pp
0 45.4624 0
0 45.4624 0
0 51.75 0
ITEM: ATOMS id type x y z
1 7 23.3833 30.1653 12.0578
ITEM: TIMESTEP
150000
ITEM: NUMBER OF ATOMS
1
ITEM: BOX BOUNDS xy xz yz pp pp pp
0 45.4624 0
0 45.4624 0
0 51.75 0
ITEM: ATOMS id type x y z
1 7 23.1207 29.8907 11.6486
ITEM: TIMESTEP
152000
ITEM: NUMBER OF ATOMS
1
ITEM: BOX BOUNDS xy xz yz pp pp pp
0 45.4624 0
0 45.4624 0
0 51.75 0
ITEM: ATOMS id type x y z
1 7 23.303 30.4893 11.9122
ITEM: TIMESTEP
154000
ITEM: NUMBER OF ATOMS
1
ITEM: BOX BOUNDS xy xz yz pp pp pp
0 45.4624 0
0 45.4624 0
0 51.75 0
ITEM: ATOMS id type x y z
1 7 24.1301 30.5229 11.8022
ITEM: TIMESTEP
156000
ITEM: NUMBER OF ATOMS
1
ITEM: BOX BOUNDS xy xz yz pp pp pp
0 45.4624 0
0 45.4624 0
0 51.75 0
ITEM: ATOMS id type x y z
1 7 24.2352 30.4736 11.9049
ITEM: TIMESTEP
158000
ITEM: NUMBER OF ATOMS
1
ITEM: BOX BOUNDS xy xz yz pp pp pp
0 45.4624 0
0 45.4624 0
0 51.75 0
ITEM: ATOMS id type x y z
1 7 23.8785 30.73 11.29
ITEM: TIMESTEP
160000
ITEM: NUMBER OF ATOMS
1
ITEM: BOX BOUNDS xy xz yz pp pp pp
0 45.4624 0
0 45.4624 0
0 51.75 0
ITEM: ATOMS id type x y z
1 7 25.1364 30.2671 10.4744
ITEM: TIMESTEP
162000
ITEM: NUMBER OF ATOMS
1
ITEM: BOX BOUNDS xy xz yz pp pp pp
0 45.4624 0
0 45.4624 0
0 51.75 0
ITEM: ATOMS id type x y z
1 7 25.3161 29.9914 9.13938
ITEM: TIMESTEP
164000
ITEM: NUMBER OF ATOMS
1
ITEM: BOX BOUNDS xy xz yz pp pp pp
0 45.4624 0
0 45.4624 0
0 51.75 0
ITEM: ATOMS id type x y z
1 7 25.7395 29.8587 7.65821
ITEM: TIMESTEP
166000
ITEM: NUMBER OF ATOMS
1
ITEM: BOX BOUNDS xy xz yz pp pp pp
0 45.4624 0
0 45.4624 0
0 51.75 0
ITEM: ATOMS id type x y z
1 7 26.4846 28.7894 7.59212
ITEM: TIMESTEP
168000
ITEM: NUMBER OF ATOMS
1
ITEM: BOX BOUNDS xy xz yz pp pp pp
0 45.4624 0
0 45.4624 0
0 51.75 0
ITEM: ATOMS id type x y z
1 7 25.6696 29.4718 8.08482
ITEM: TIMESTEP
170000
ITEM: NUMBER OF ATOMS
1
ITEM: BOX BOUNDS xy xz yz pp pp pp
0 45.4624 0
0 45.4624 0
0 51.75 0
ITEM: ATOMS id type x y z
1 7 25.7438 29.9377 9.41126
ITEM: TIMESTEP
172000
ITEM: NUMBER OF ATOMS
1
ITEM: BOX BOUNDS xy xz yz pp pp pp
0 45.4624 0
0 45.4624 0
0 51.75 0
ITEM: ATOMS id type x y z
1 7 25.4327 30.6147 10.8921
ITEM: TIMESTEP
174000
ITEM: NUMBER OF ATOMS
1
ITEM: BOX BOUNDS xy xz yz pp pp pp
0 45.4624 0
0 45.4624 0
0 51.75 0
ITEM: ATOMS id type x y z
1 7 25.0191 30.7979 10.9674
ITEM: TIMESTEP
176000
ITEM: NUMBER OF ATOMS
1
ITEM: BOX BOUNDS xy xz yz pp pp pp
0 45.4624 0
0 45.4624 0
0 51.75 0
ITEM: ATOMS id type x y z
1 7 25.7918 29.8184 10.5155
ITEM: TIMESTEP
178000
ITEM: NUMBER OF ATOMS
1
ITEM: BOX BOUNDS xy xz yz pp pp pp
0 45.4624 0
0 45.4624 0
0 51.75 0
ITEM: ATOMS id type x y z
1 7 25.6726 30.5361 9.44759
ITEM: TIMESTEP
180000
ITEM: NUMBER OF ATOMS
1
ITEM: BOX BOUNDS xy xz yz pp pp pp
0 45.4624 0
0 45.4624 0
0 51.75 0
ITEM: ATOMS id type x y z
1 7 26.6963 29.9308 9.03498
ITEM: TIMESTEP
182000
ITEM: NUMBER OF ATOMS
1
ITEM: BOX BOUNDS xy xz yz pp pp pp
0 45.4624 0
0 45.4624 0
0 51.75 0
ITEM: ATOMS id type x y z
1 7 26.7447 29.1535 7.76621
ITEM: TIMESTEP
184000
ITEM: NUMBER OF ATOMS
1
ITEM: BOX BOUNDS xy xz yz pp pp pp
0 45.4624 0
0 45.4624 0
0 51.75 0
ITEM: ATOMS id type x y z
1 7 27.9537 28.7659 7.25118
ITEM: TIMESTEP
186000
ITEM: NUMBER OF ATOMS
1
ITEM: BOX BOUNDS xy xz yz pp pp pp
0 45.4624 0
0 45.4624 0
0 51.75 0
ITEM: ATOMS id type x y z
1 7 27.7359 28.9461 7.05024
ITEM: TIMESTEP
188000
ITEM: NUMBER OF ATOMS
1
ITEM: BOX BOUNDS xy xz yz pp pp pp
0 45.4624 0
0 45.4624 0
0 51.75 0
ITEM: ATOMS id type x y z
1 7 27.2696 28.9957 7.77214
ITEM: TIMESTEP
190000
ITEM: NUMBER OF ATOMS
1
ITEM: BOX BOUNDS xy xz yz pp pp pp
0 45.4624 0
0 45.4624 0
0 51.75 0
ITEM: ATOMS id type x y z
1 7 27.4669 30.3808 7.80037
ITEM: TIMESTEP
192000
ITEM: NUMBER OF ATOMS
1
ITEM: BOX BOUNDS xy xz yz pp pp pp
0 45.4624 0
0 45.4624 0
0 51.75 0
ITEM: ATOMS id type x y z
1 7 26.3305 30.0688 7.52997
ITEM: TIMESTEP
194000
ITEM: NUMBER OF ATOMS
1
ITEM: BOX BOUNDS xy xz yz pp pp pp
0 45.4624 0
0 45.4624 0
0 51.75 0
ITEM: ATOMS id type x y z
1 7 26.8073 29.8368 7.98534
ITEM: TIMESTEP
196000
ITEM: NUMBER OF ATOMS
1
ITEM: BOX BOUNDS xy xz yz pp pp pp
0 45.4624 0
0 45.4624 0
0 51.75 0
ITEM: ATOMS id type x y z
1 7 26.0319 29.7566 7.76192
ITEM: TIMESTEP
198000
ITEM: NUMBER OF ATOMS
1
ITEM: BOX BOUNDS xy xz yz pp pp pp
0 45.4624 0
0 45.4624 0
0 51.75 0
ITEM: ATOMS id type x y z
1 7 25.1866 30.3122 8.09588
ITEM: TIMESTEP
200000
ITEM: NUMBER OF ATOMS
1
ITEM: BOX BOUNDS xy xz yz pp pp pp
0 45.4624 0
0 45.4624 0
0 51.75 0
ITEM: ATOMS id type x y z
1 7 25.3546 29.8678 7.86068
ITEM: TIMESTEP
202000
ITEM: NUMBER OF ATOMS
1
ITEM: BOX BOUNDS xy xz yz pp pp pp
0 45.4624 0
0 45.4624 0
0 51.75 0
ITEM: ATOMS id type x y z
1 7 25.1866 30.1119 7.87333
ITEM: TIMESTEP
204000
ITEM: NUMBER OF ATOMS
1
ITEM: BOX BOUNDS xy xz yz pp pp pp
0 45.4624 0
0 45.4624 0
0 51.75 0
ITEM: ATOMS id type x y z
1 7 25.1298 30.3752 7.32566
ITEM: TIMESTEP
206000
ITEM: NUMBER OF ATOMS
1
ITEM: BOX BOUNDS xy xz yz pp pp pp
0 45.4624 0
0 45.4624 0
0 51.75 0
ITEM: ATOMS id type x y z
1 7 26.0053 29.8301 7.1167
ITEM: TIMESTEP
208000
ITEM: NUMBER OF ATOMS
1
ITEM: BOX BOUNDS xy xz yz pp pp pp
0 45.4624 0
0 45.4624 0
0 51.75 0
ITEM: ATOMS id type x y z
1 7 25.716 30.3574 7.36083
ITEM: TIMESTEP
210000
ITEM: NUMBER OF ATOMS
1
ITEM: BOX BOUNDS xy xz yz pp pp pp
0 45.4624 0
0 45.4624 0
0 51.75 0
ITEM: ATOMS id type x y z
1 7 25.2552 30.7182 8.15078
ITEM: TIMESTEP
212000
ITEM: NUMBER OF ATOMS
1
ITEM: BOX BOUNDS xy xz yz pp pp pp
0 45.4624 0
0 45.4624 0
0 51.75 0
ITEM: ATOMS id type x y z
1 7 25.0456 30.6004 8.30543
ITEM: TIMESTEP
214000
ITEM: NUMBER OF ATOMS
1
ITEM: BOX BOUNDS xy xz yz pp pp pp
0 45.4624 0
0 45.4624 0
0 51.75 0
ITEM: ATOMS id type x y z
1 7 24.938 30.3144 8.02844
ITEM: TIMESTEP
216000
ITEM: NUMBER OF ATOMS
1
ITEM: BOX BOUNDS xy xz yz pp pp pp
0 45.4624 0
0 45.4624 0
0 51.75 0
ITEM: ATOMS id type x y z
1 7 24.7765 30.4125 8.28197
ITEM: TIMESTEP
218000
ITEM: NUMBER OF ATOMS
1
ITEM: BOX BOUNDS xy xz yz pp pp pp
0 45.4624 0
0 45.4624 0
0 51.75 0
ITEM: ATOMS id type x y z
1 7 24.7197 30.4192 8.76804
ITEM: TIMESTEP
220000
ITEM: NUMBER OF ATOMS
1
ITEM: BOX BOUNDS xy xz yz pp pp pp
0 45.4624 0
0 45.4624 0
0 51.75 0
ITEM: ATOMS id type x y z
1 7 25.3185 30.3302 8.63052
ITEM: TIMESTEP
222000
ITEM: NUMBER OF ATOMS
1
ITEM: BOX BOUNDS xy xz yz pp pp pp
0 45.4624 0
0 45.4624 0
0 51.75 0
ITEM: ATOMS id type x y z
1 7 24.1119 30.1186 7.48634
ITEM: TIMESTEP
224000
ITEM: NUMBER OF ATOMS
1
ITEM: BOX BOUNDS xy xz yz pp pp pp
0 45.4624 0
0 45.4624 0
0 51.75 0
ITEM: ATOMS id type x y z
1 7 24.1711 29.8531 7.21042
ITEM: TIMESTEP
226000
ITEM: NUMBER OF ATOMS
1
ITEM: BOX BOUNDS xy xz yz pp pp pp
0 45.4624 0
0 45.4624 0
0 51.75 0
ITEM: ATOMS id type x y z
1 7 24.9569 29.4931 8.03414
ITEM: TIMESTEP
228000
ITEM: NUMBER OF ATOMS
1
ITEM: BOX BOUNDS xy xz yz pp pp pp
0 45.4624 0
0 45.4624 0
0 51.75 0
ITEM: ATOMS id type x y z
1 7 24.6627 29.2076 7.45633
ITEM: TIMESTEP
230000
ITEM: NUMBER OF ATOMS
1
ITEM: BOX BOUNDS xy xz yz pp pp pp
0 45.4624 0
0 45.4624 0
0 51.75 0
ITEM: ATOMS id type x y z
1 7 24.1003 29.6067 7.28709
ITEM: TIMESTEP
232000
ITEM: NUMBER OF ATOMS
1
ITEM: BOX BOUNDS xy xz yz pp pp pp
0 45.4624 0
0 45.4624 0
0 51.75 0
ITEM: ATOMS id type x y z
1 7 24.4636 29.5539 7.47471
ITEM: TIMESTEP
234000
ITEM: NUMBER OF ATOMS
1
ITEM: BOX BOUNDS xy xz yz pp pp pp
0 45.4624 0
0 45.4624 0
0 51.75 0
ITEM: ATOMS id type x y z
1 7 24.2984 29.6908 7.75042
ITEM: TIMESTEP
236000
ITEM: NUMBER OF ATOMS
1
ITEM: BOX BOUNDS xy xz yz pp pp pp
0 45.4624 0
0 45.4624 0
0 51.75 0
ITEM: ATOMS id type x y z
1 7 24.2291 29.6873 7.32047
ITEM: TIMESTEP
238000
ITEM: NUMBER OF ATOMS
1
ITEM: BOX BOUNDS xy xz yz pp pp pp
0 45.4624 0
0 45.4624 0
0 51.75 0
ITEM: ATOMS id type x y z
1 7 24.3309 30.4506 7.58659
ITEM: TIMESTEP
240000
ITEM: NUMBER OF ATOMS
1
ITEM: BOX BOUNDS xy xz yz pp pp pp
0 45.4624 0
0 45.4624 0
0 51.75 0
ITEM: ATOMS id type x y z
1 7 24.0436 30.1132 8.53509
ITEM: TIMESTEP
242000
ITEM: NUMBER OF ATOMS
1
ITEM: BOX BOUNDS xy xz yz pp pp pp
0 45.4624 0
0 45.4624 0
0 51.75 0
ITEM: ATOMS id type x y z
1 7 24.4602 30.11 7.38779
ITEM: TIMESTEP
244000
ITEM: NUMBER OF ATOMS
1
ITEM: BOX BOUNDS xy xz yz pp pp pp
0 45.4624 0
0 45.4624 0
0 51.75 0
ITEM: ATOMS id type x y z
1 7 24.7872 29.4644 7.2212
ITEM: TIMESTEP
246000
ITEM: NUMBER OF ATOMS
1
ITEM: BOX BOUNDS xy xz yz pp pp pp
0 45.4624 0
0 45.4624 0
0 51.75 0
ITEM: ATOMS id type x y z
1 7 24.6562 29.2665 8.21412
ITEM: TIMESTEP
248000
ITEM: NUMBER OF ATOMS
1
ITEM: BOX BOUNDS xy xz yz pp pp pp
0 45.4624 0
0 45.4624 0
0 51.75 0
ITEM: ATOMS id type x y z
1 7 24.7936 29.3195 8.12644
ITEM: TIMESTEP
250000
ITEM: NUMBER OF ATOMS
1
ITEM: BOX BOUNDS xy xz yz pp pp pp
0 45.4624 0
0 45.4624 0
0 51.75 0
ITEM: ATOMS id type x y z
1 7 25.0423 28.9344 8.35736
ITEM: TIMESTEP
252000
ITEM: NUMBER OF ATOMS
1
ITEM: BOX BOUNDS xy xz yz pp pp pp
0 45.4624 0
0 45.4624 0
0 51.75 0
ITEM: ATOMS id type x y z
1 7 25.3075 28.409 8.35103
ITEM: TIMESTEP
254000
ITEM: NUMBER OF ATOMS
1
ITEM: BOX BOUNDS xy xz yz pp pp pp
0 45.4624 0
0 45.4624 0
0 51.75 0
ITEM: ATOMS id type x y z
1 7 26.1673 28.727 8.10048
ITEM: TIMESTEP
256000
ITEM: NUMBER OF ATOMS
1
ITEM: BOX BOUNDS xy xz yz pp pp pp
0 45.4624 0
0 45.4624 0
0 51.75 0
ITEM: ATOMS id type x y z
1 7 25.6494 28.6655 8.20256
ITEM: TIMESTEP
258000
ITEM: NUMBER OF ATOMS
1
ITEM: BOX BOUNDS xy xz yz pp pp pp
0 45.4624 0
0 45.4624 0
0 51.75 0
ITEM: ATOMS id type x y z
1 7 26.1694 28.6185 7.75249
ITEM: TIMESTEP
260000
ITEM: NUMBER OF ATOMS
1
ITEM: BOX BOUNDS xy xz yz pp pp pp
0 45.4624 0
0 45.4624 0
0 51.75 0
ITEM: ATOMS id type x y z
1 7 26.3373 28.5098 7.66637
ITEM: TIMESTEP
262000
ITEM: NUMBER OF ATOMS
1
ITEM: BOX BOUNDS xy xz yz pp pp pp
0 45.4624 0
0 45.4624 0
0 51.75 0
ITEM: ATOMS id type x y z
1 7 26.3845 28.5056 7.66289
ITEM: TIMESTEP
264000
ITEM: NUMBER OF ATOMS
1
ITEM: BOX BOUNDS xy xz yz pp pp pp
0 45.4624 0
0 45.4624 0
0 51.75 0
ITEM: ATOMS id type x y z
1 7 26.4656 28.7619 7.938
ITEM: TIMESTEP
266000
ITEM: NUMBER OF ATOMS
1
ITEM: BOX BOUNDS xy xz yz pp pp pp
0 45.4624 0
0 45.4624 0
0 51.75 0
ITEM: ATOMS id type x y z
1 7 26.3644 28.0512 7.8419
ITEM: TIMESTEP
268000
ITEM: NUMBER OF ATOMS
1
ITEM: BOX BOUNDS xy xz yz pp pp pp
0 45.4624 0
0 45.4624 0
0 51.75 0
ITEM: ATOMS id type x y z
1 7 26.5003 28.1451 7.78519
ITEM: TIMESTEP
270000
ITEM: NUMBER OF ATOMS
1
ITEM: BOX BOUNDS xy xz yz pp pp pp
0 45.4624 0
0 45.4624 0
0 51.75 0
ITEM: ATOMS id type x y z
1 7 25.9752 28.9852 8.05495
ITEM: TIMESTEP
272000
ITEM: NUMBER OF ATOMS
1
ITEM: BOX BOUNDS xy xz yz pp pp pp
0 45.4624 0
0 45.4624 0
0 51.75 0
ITEM: ATOMS id type x y z
1 7 25.2889 28.9013 7.13458
ITEM: TIMESTEP
274000
ITEM: NUMBER OF ATOMS
1
ITEM: BOX BOUNDS xy xz yz pp pp pp
0 45.4624 0
0 45.4624 0
0 51.75 0
ITEM: ATOMS id type x y z
1 7 24.6922 29.3192 6.50185
ITEM: TIMESTEP
276000
ITEM: NUMBER OF ATOMS
1
ITEM: BOX BOUNDS xy xz yz pp pp pp
0 45.4624 0
0 45.4624 0
0 51.75 0
ITEM: ATOMS id type x y z
1 7 24.1599 29.5631 5.42885
ITEM: TIMESTEP
278000
ITEM: NUMBER OF ATOMS
1
ITEM: BOX BOUNDS xy xz yz pp pp pp
0 45.4624 0
0 45.4624 0
0 51.75 0
ITEM: ATOMS id type x y z
1 7 23.9838 29.2984 4.71604
ITEM: TIMESTEP
280000
ITEM: NUMBER OF ATOMS
1
ITEM: BOX BOUNDS xy xz yz pp pp pp
0 45.4624 0
0 45.4624 0
0 51.75 0
ITEM: ATOMS id type x y z
1 7 24.8401 29.4361 5.0541
ITEM: TIMESTEP
282000
ITEM: NUMBER OF ATOMS
1
ITEM: BOX BOUNDS xy xz yz pp pp pp
0 45.4624 0
0 45.4624 0
0 51.75 0
ITEM: ATOMS id type x y z
1 7 24.6316 28.7665 4.64227
ITEM: TIMESTEP
284000
ITEM: NUMBER OF ATOMS
1
ITEM: BOX BOUNDS xy xz yz pp pp pp
0 45.4624 0
0 45.4624 0
0 51.75 0
ITEM: ATOMS id type x y z
1 7 23.6379 29.1619 4.89085
ITEM: TIMESTEP
286000
ITEM: NUMBER OF ATOMS
1
ITEM: BOX BOUNDS xy xz yz pp pp pp
0 45.4624 0
0 45.4624 0
0 51.75 0
ITEM: ATOMS id type x y z
1 7 23.3494 28.8294 3.77889
ITEM: TIMESTEP
288000
ITEM: NUMBER OF ATOMS
1
ITEM: BOX BOUNDS xy xz yz pp pp pp
0 45.4624 0
0 45.4624 0
0 51.75 0
ITEM: ATOMS id type x y z
1 7 24.3121 28.5935 4.29897
ITEM: TIMESTEP
290000
ITEM: NUMBER OF ATOMS
1
ITEM: BOX BOUNDS xy xz yz pp pp pp
0 45.4624 0
0 45.4624 0
0 51.75 0
ITEM: ATOMS id type x y z
1 7 23.6506 28.5948 5.29258
ITEM: TIMESTEP
292000
ITEM: NUMBER OF ATOMS
1
ITEM: BOX BOUNDS xy xz yz pp pp pp
0 45.4624 0
0 45.4624 0
0 51.75 0
ITEM: ATOMS id type x y z
1 7 23.6546 28.6807 5.00237
ITEM: TIMESTEP
294000
ITEM: NUMBER OF ATOMS
1
ITEM: BOX BOUNDS xy xz yz pp pp pp
0 45.4624 0
0 45.4624 0
0 51.75 0
ITEM: ATOMS id type x y z
1 7 22.8328 28.8004 4.22673
ITEM: TIMESTEP
296000
ITEM: NUMBER OF ATOMS
1
ITEM: BOX BOUNDS xy xz yz pp pp pp
0 45.4624 0
0 45.4624 0
0 51.75 0
ITEM: ATOMS id type x y z
1 7 21.9058 29.0276 4.66232
ITEM: TIMESTEP
298000
ITEM: NUMBER OF ATOMS
1
ITEM: BOX BOUNDS xy xz yz pp pp pp
0 45.4624 0
0 45.4624 0
0 51.75 0
ITEM: ATOMS id type x y z
1 7 22.8774 29.1475 4.63211
ITEM: TIMESTEP
300000
ITEM: NUMBER OF ATOMS
1
ITEM: BOX BOUNDS xy xz yz pp pp pp
0 45.4624 0
0 45.4624 0
0 51.75 0
ITEM: ATOMS id type x y z
1 7 22.9482 27.8706 4.32253
ITEM: TIMESTEP
302000
ITEM: NUMBER OF ATOMS
1
ITEM: BOX BOUNDS xy xz yz pp pp pp
0 45.4624 0
0 45.4624 0
0 51.75 0
ITEM: ATOMS id type x y z
1 7 23.0263 29.1201 4.55799
ITEM: TIMESTEP
304000
ITEM: NUMBER OF ATOMS
1
ITEM: BOX BOUNDS xy xz yz pp pp pp
0 45.4624 0
0 45.4624 0
0 51.75 0
ITEM: ATOMS id type x y z
1 7 22.4965 28.9293 4.47443
ITEM: TIMESTEP
306000
ITEM: NUMBER OF ATOMS
1
ITEM: BOX BOUNDS xy xz yz pp pp pp
0 45.4624 0
0 45.4624 0
0 51.75 0
ITEM: ATOMS id type x y z
1 7 22.9664 28.9239 3.47585
ITEM: TIMESTEP
308000
ITEM: NUMBER OF ATOMS
1
ITEM: BOX BOUNDS xy xz yz pp pp pp
0 45.4624 0
0 45.4624 0
0 51.75 0
ITEM: ATOMS id type x y z
1 7 23.2562 28.889 4.53269
ITEM: TIMESTEP
310000
ITEM: NUMBER OF ATOMS
1
ITEM: BOX BOUNDS xy xz yz pp pp pp
0 45.4624 0
0 45.4624 0
0 51.75 0
ITEM: ATOMS id type x y z
1 7 22.9009 29.1926 4.93042
ITEM: TIMESTEP
312000
ITEM: NUMBER OF ATOMS
1
ITEM: BOX BOUNDS xy xz yz pp pp pp
0 45.4624 0
0 45.4624 0
0 51.75 0
ITEM: ATOMS id type x y z
1 7 22.4858 29.651 4.42806
ITEM: TIMESTEP
314000
ITEM: NUMBER OF ATOMS
1
ITEM: BOX BOUNDS xy xz yz pp pp pp
0 45.4624 0
0 45.4624 0
0 51.75 0
ITEM: ATOMS id type x y z
1 7 21.7919 29.4617 3.95929
ITEM: TIMESTEP
316000
ITEM: NUMBER OF ATOMS
1
ITEM: BOX BOUNDS xy xz yz pp pp pp
0 45.4624 0
0 45.4624 0
0 51.75 0
ITEM: ATOMS id type x y z
1 7 22.0292 30.0678 4.10911
ITEM: TIMESTEP
318000
ITEM: NUMBER OF ATOMS
1
ITEM: BOX BOUNDS xy xz yz pp pp pp
0 45.4624 0
0 45.4624 0
0 51.75 0
ITEM: ATOMS id type x y z
1 7 22.3907 29.095 4.44326
ITEM: TIMESTEP
320000
ITEM: NUMBER OF ATOMS
1
ITEM: BOX BOUNDS xy xz yz pp pp pp
0 45.4624 0
0 45.4624 0
0 51.75 0
ITEM: ATOMS id type x y z
1 7 21.5208 29.8533 4.36877
ITEM: TIMESTEP
322000
ITEM: NUMBER OF ATOMS
1
ITEM: BOX BOUNDS xy xz yz pp pp pp
0 45.4624 0
0 45.4624 0
0 51.75 0
ITEM: ATOMS id type x y z
1 7 21.9657 29.5863 4.70086
ITEM: TIMESTEP
324000
ITEM: NUMBER OF ATOMS
1
ITEM: BOX BOUNDS xy xz yz pp pp pp
0 45.4624 0
0 45.4624 0
0 51.75 0
ITEM: ATOMS id type x y z
1 7 23.2717 29.7617 3.83383
ITEM: TIMESTEP
326000
ITEM: NUMBER OF ATOMS
1
ITEM: BOX BOUNDS xy xz yz pp pp pp
0 45.4624 0
0 45.4624 0
0 51.75 0
ITEM: ATOMS id type x y z
1 7 22.4821 29.0364 5.21273
ITEM: TIMESTEP
328000
ITEM: NUMBER OF ATOMS
1
ITEM: BOX BOUNDS xy xz yz pp pp pp
0 45.4624 0
0 45.4624 0
0 51.75 0
ITEM: ATOMS id type x y z
1 7 22.8505 29.8207 6.29733
ITEM: TIMESTEP
330000
ITEM: NUMBER OF ATOMS
1
ITEM: BOX BOUNDS xy xz yz pp pp pp
0 45.4624 0
0 45.4624 0
0 51.75 0
ITEM: ATOMS id type x y z
1 7 22.7449 29.7707 6.49033
ITEM: TIMESTEP
332000
ITEM: NUMBER OF ATOMS
1
ITEM: BOX BOUNDS xy xz yz pp pp pp
0 45.4624 0
0 45.4624 0
0 51.75 0
ITEM: ATOMS id type x y z
1 7 23.1026 30.2662 6.81431
ITEM: TIMESTEP
334000
ITEM: NUMBER OF ATOMS
1
ITEM: BOX BOUNDS xy xz yz pp pp pp
0 45.4624 0
0 45.4624 0
0 51.75 0
ITEM: ATOMS id type x y z
1 7 24.0514 30.0133 7.50669
ITEM: TIMESTEP
336000
ITEM: NUMBER OF ATOMS
1
ITEM: BOX BOUNDS xy xz yz pp pp pp
0 45.4624 0
0 45.4624 0
0 51.75 0
ITEM: ATOMS id type x y z
1 7 24.4771 29.6495 8.25141
ITEM: TIMESTEP
338000
ITEM: NUMBER OF ATOMS
1
ITEM: BOX BOUNDS xy xz yz pp pp pp
0 45.4624 0
0 45.4624 0
0 51.75 0
ITEM: ATOMS id type x y z
1 7 24.5952 29.5304 8.02848
ITEM: TIMESTEP
340000
ITEM: NUMBER OF ATOMS
1
ITEM: BOX BOUNDS xy xz yz pp pp pp
0 45.4624 0
0 45.4624 0
0 51.75 0
ITEM: ATOMS id type x y z
1 7 24.9209 28.9219 7.90122
ITEM: TIMESTEP
342000
ITEM: NUMBER OF ATOMS
1
ITEM: BOX BOUNDS xy xz yz pp pp pp
0 45.4624 0
0 45.4624 0
0 51.75 0
ITEM: ATOMS id type x y z
1 7 25.0251 29.0227 7.12267
ITEM: TIMESTEP
344000
ITEM: NUMBER OF ATOMS
1
ITEM: BOX BOUNDS xy xz yz pp pp pp
0 45.4624 0
0 45.4624 0
0 51.75 0
ITEM: ATOMS id type x y z
1 7 24.833 29.3919 5.57715
ITEM: TIMESTEP
346000
ITEM: NUMBER OF ATOMS
1
ITEM: BOX BOUNDS xy xz yz pp pp pp
0 45.4624 0
0 45.4624 0
0 51.75 0
ITEM: ATOMS id type x y z
1 7 23.7233 29.7846 4.34717
ITEM: TIMESTEP
348000
ITEM: NUMBER OF ATOMS
1
ITEM: BOX BOUNDS xy xz yz pp pp pp
0 45.4624 0
0 45.4624 0
0 51.75 0
ITEM: ATOMS id type x y z
1 7 22.9902 29.6685 3.40586
ITEM: TIMESTEP
350000
ITEM: NUMBER OF ATOMS
1
ITEM: BOX BOUNDS xy xz yz pp pp pp
0 45.4624 0
0 45.4624 0
0 51.75 0
ITEM: ATOMS id type x y z
1 7 23.4194 30.3678 2.36076
ITEM: TIMESTEP
352000
ITEM: NUMBER OF ATOMS
1
ITEM: BOX BOUNDS xy xz yz pp pp pp
0 45.4624 0
0 45.4624 0
0 51.75 0
ITEM: ATOMS id type x y z
1 7 23.4313 30.4693 1.62555
ITEM: TIMESTEP
354000
ITEM: NUMBER OF ATOMS
1
ITEM: BOX BOUNDS xy xz yz pp pp pp
0 45.4624 0
0 45.4624 0
0 51.75 0
ITEM: ATOMS id type x y z
1 7 23.6277 30.4857 2.12514
ITEM: TIMESTEP
356000
ITEM: NUMBER OF ATOMS
1
ITEM: BOX BOUNDS xy xz yz pp pp pp
0 45.4624 0
0 45.4624 0
0 51.75 0
ITEM: ATOMS id type x y z
1 7 24.9292 29.996 2.17667
ITEM: TIMESTEP
358000
ITEM: NUMBER OF ATOMS
1
ITEM: BOX BOUNDS xy xz yz pp pp pp
0 45.4624 0
0 45.4624 0
0 51.75 0
ITEM: ATOMS id type x y z
1 7 25.7831 30.0648 1.78974
ITEM: TIMESTEP
360000
ITEM: NUMBER OF ATOMS
1
ITEM: BOX BOUNDS xy xz yz pp pp pp
0 45.4624 0
0 45.4624 0
0 51.75 0
ITEM: ATOMS id type x y z
1 7 25.8065 29.8004 1.75109
ITEM: TIMESTEP
362000
ITEM: NUMBER OF ATOMS
1
ITEM: BOX BOUNDS xy xz yz pp pp pp
0 45.4624 0
0 45.4624 0
0 51.75 0
ITEM: ATOMS id type x y z
1 7 26.0049 29.7528 1.4279
ITEM: TIMESTEP
364000
ITEM: NUMBER OF ATOMS
1
ITEM: BOX BOUNDS xy xz yz pp pp pp
0 45.4624 0
0 45.4624 0
0 51.75 0
ITEM: ATOMS id type x y z
1 7 26.0853 29.1601 0.843996