ITEM: TIMESTEP
10000
ITEM: NUMBER OF ATOMS
1
ITEM: BOX BOUNDS xy xz yz pp pp pp
0 45.4624 0
0 45.4624 0
0 51.75 0
ITEM: ATOMS id type x y z
1 7 23.0306 19.4381 2.09741
ITEM: TIMESTEP
12000
ITEM: NUMBER OF ATOMS
1
ITEM: BOX BOUNDS xy xz yz pp pp pp
0 45.4624 0
0 45.4624 0
0 51.75 0
ITEM: ATOMS id type x y z
1 7 21.9914 19.9198 2.72286
ITEM: TIMESTEP
14000
ITEM: NUMBER OF ATOMS
1
ITEM: BOX BOUNDS xy xz yz pp pp pp
0 45.4624 0
0 45.4624 0
0 51.75 0
ITEM: ATOMS id type x y z
1 7 21.0265 20.6916 3.51623
ITEM: TIMESTEP
16000
ITEM: NUMBER OF ATOMS
1
ITEM: BOX BOUNDS xy xz yz pp pp pp
0 45.4624 0
0 45.4624 0
0 51.75 0
ITEM: ATOMS id type x y z
1 7 19.8818 20.4504 4.62092
ITEM: TIMESTEP
18000
ITEM: NUMBER OF ATOMS
1
ITEM: BOX BOUNDS xy xz yz pp pp pp
0 45.4624 0
0 45.4624 0
0 51.75 0
ITEM: ATOMS id type x y z
1 7 18.0898 19.0307 6.18837
ITEM: TIMESTEP
20000
ITEM: NUMBER OF ATOMS
1
ITEM: BOX BOUNDS xy xz yz pp pp pp
0 45.4624 0
0 45.4624 0
0 51.75 0
ITEM: ATOMS id type x y z
1 7 17.2503 18.6027 5.99911
ITEM: TIMESTEP
22000
ITEM: NUMBER OF ATOMS
1
ITEM: BOX BOUNDS xy xz yz pp pp pp
0 45.4624 0
0 45.4624 0
0 51.75 0
ITEM: ATOMS id type x y z
1 7 15.9056 19.9735 5.56179
ITEM: TIMESTEP
24000
ITEM: NUMBER OF ATOMS
1
ITEM: BOX BOUNDS xy xz yz pp pp pp
0 45.4624 0
0 45.4624 0
0 51.75 0
ITEM: ATOMS id type x y z
1 7 14.2853 20.4122 4.46871
ITEM: TIMESTEP
26000
ITEM: NUMBER OF ATOMS
1
ITEM: BOX BOUNDS xy xz yz pp pp pp
0 45.4624 0
0 45.4624 0
0 51.75 0
ITEM: ATOMS id type x y z
1 7 14.649 19.842 4.30919
ITEM: TIMESTEP
28000
ITEM: NUMBER OF ATOMS
1
ITEM: BOX BOUNDS xy xz yz pp pp pp
0 45.4624 0
0 45.4624 0
0 51.75 0
ITEM: ATOMS id type x y z
1 7 15.569 20.0774 5.32679
ITEM: TIMESTEP
30000
ITEM: NUMBER OF ATOMS
1
ITEM: BOX BOUNDS xy xz yz pp pp pp
0 45.4624 0
0 45.4624 0
0 51.75 0
ITEM: ATOMS id type x y z
1 7 15.6413 21.3748 5.26959
ITEM: TIMESTEP
32000
ITEM: NUMBER OF ATOMS
1
ITEM: BOX BOUNDS xy xz yz pp pp pp
0 45.4624 0
0 45.4624 0
0 51.75 0
ITEM: ATOMS id type x y z
1 7 14.8953 23.079 3.61314
ITEM: TIMESTEP
34000
ITEM: NUMBER OF ATOMS
1
ITEM: BOX BOUNDS xy xz yz pp pp pp
0 45.4624 0
0 45.4624 0
0 51.75 0
ITEM: ATOMS id type x y z
1 7 14.8511 24.6559 2.13905
ITEM: TIMESTEP
36000
ITEM: NUMBER OF ATOMS
1
ITEM: BOX BOUNDS xy xz yz pp pp pp
0 45.4624 0
0 45.4624 0
0 51.75 0
ITEM: ATOMS id type x y z
1 7 15.5867 26.2673 0.196079
ITEM: TIMESTEP
38000
ITEM: NUMBER OF ATOMS
1
ITEM: BOX BOUNDS xy xz yz pp pp pp
0 45.4624 0
0 45.4624 0
0 51.75 0
ITEM: ATOMS id type x y z
1 7 15.0962 27.4151 -1.9628
ITEM: TIMESTEP
40000
ITEM: NUMBER OF ATOMS
1
ITEM: BOX BOUNDS xy xz yz pp pp pp
0 45.4624 0
0 45.4624 0
0 51.75 0
ITEM: ATOMS id type x y z
1 7 14.8831 29.1642 -3.6139
ITEM: TIMESTEP
42000
ITEM: NUMBER OF ATOMS
1
ITEM: BOX BOUNDS xy xz yz pp pp pp
0 45.4624 0
0 45.4624 0
0 51.75 0
ITEM: ATOMS id type x y z
1 7 14.5013 31.5709 -4.5685
ITEM: TIMESTEP
44000
ITEM: NUMBER OF ATOMS
1
ITEM: BOX BOUNDS xy xz yz pp pp pp
0 45.4624 0
0 45.4624 0
0 51.75 0
ITEM: ATOMS id type x y z
1 7 14.5102 32.2038 -5.1722
ITEM: TIMESTEP
46000
ITEM: NUMBER OF ATOMS
1
ITEM: BOX BOUNDS xy xz yz pp pp pp
0 45.4624 0
0 45.4624 0
0 51.75 0
ITEM: ATOMS id type x y z
1 7 13.8145 31.129 -6.0179
ITEM: TIMESTEP
48000
ITEM: NUMBER OF ATOMS
1
ITEM: BOX BOUNDS xy xz yz pp pp pp
0 45.4624 0
0 45.4624 0
0 51.75 0
ITEM: ATOMS id type x y z
1 7 15.6496 30.8647 -5.0161
ITEM: TIMESTEP
50000
ITEM: NUMBER OF ATOMS
1
ITEM: BOX BOUNDS xy xz yz pp pp pp
0 45.4624 0
0 45.4624 0
0 51.75 0
ITEM: ATOMS id type x y z
1 7 15.9607 29.7256 -3.7931
ITEM: TIMESTEP
52000
ITEM: NUMBER OF ATOMS
1
ITEM: BOX BOUNDS xy xz yz pp pp pp
0 45.4624 0
0 45.4624 0
0 51.75 0
ITEM: ATOMS id type x y z
1 7 14.1904 28.6921 -2.6827
ITEM: TIMESTEP
54000
ITEM: NUMBER OF ATOMS
1
ITEM: BOX BOUNDS xy xz yz pp pp pp
0 45.4624 0
0 45.4624 0
0 51.75 0
ITEM: ATOMS id type x y z
1 7 15.6883 28.1147 -3.2494
ITEM: TIMESTEP
56000
ITEM: NUMBER OF ATOMS
1
ITEM: BOX BOUNDS xy xz yz pp pp pp
0 45.4624 0
0 45.4624 0
0 51.75 0
ITEM: ATOMS id type x y z
1 7 15.7112 29.0115 -4.1522
ITEM: TIMESTEP
58000
ITEM: NUMBER OF ATOMS
1
ITEM: BOX BOUNDS xy xz yz pp pp pp
0 45.4624 0
0 45.4624 0
0 51.75 0
ITEM: ATOMS id type x y z
1 7 14.9559 29.4864 -5.8231
ITEM: TIMESTEP
60000
ITEM: NUMBER OF ATOMS
1
ITEM: BOX BOUNDS xy xz yz pp pp pp
0 45.4624 0
0 45.4624 0
0 51.75 0
ITEM: ATOMS id type x y z
1 7 14.4216 29.9223 -8.0387
ITEM: TIMESTEP
62000
ITEM: NUMBER OF ATOMS
1
ITEM: BOX BOUNDS xy xz yz pp pp pp
0 45.4624 0
0 45.4624 0
0 51.75 0
ITEM: ATOMS id type x y z
1 7 15.1848 31.6299 -9.4859
ITEM: TIMESTEP
64000
ITEM: NUMBER OF ATOMS
1
ITEM: BOX BOUNDS xy xz yz pp pp pp
0 45.4624 0
0 45.4624 0
0 51.75 0
ITEM: ATOMS id type x y z
1 7 15.2285 30.4399 -9.5416
ITEM: TIMESTEP
66000
ITEM: NUMBER OF ATOMS
1
ITEM: BOX BOUNDS xy xz yz pp pp pp
0 45.4624 0
0 45.4624 0
0 51.75 0
ITEM: ATOMS id type x y z
1 7 14.7525 30.3215 -8.8329
ITEM: TIMESTEP
68000
ITEM: NUMBER OF ATOMS
1
ITEM: BOX BOUNDS xy xz yz pp pp pp
0 45.4624 0
0 45.4624 0
0 51.75 0
ITEM: ATOMS id type x y z
1 7 15.9274 30.9224 -9.3308
ITEM: TIMESTEP
70000
ITEM: NUMBER OF ATOMS
1
ITEM: BOX BOUNDS xy xz yz pp pp pp
0 45.4624 0
0 45.4624 0
0 51.75 0
ITEM: ATOMS id type x y z
1 7 16.1893 29.2611 -10.2564
ITEM: TIMESTEP
72000
ITEM: NUMBER OF ATOMS
1
ITEM: BOX BOUNDS xy xz yz pp pp pp
0 45.4624 0
0 45.4624 0
0 51.75 0
ITEM: ATOMS id type x y z
1 7 15.3333 28.986 -10.4645
ITEM: TIMESTEP
74000
ITEM: NUMBER OF ATOMS
1
ITEM: BOX BOUNDS xy xz yz pp pp pp
0 45.4624 0
0 45.4624 0
0 51.75 0
ITEM: ATOMS id type x y z
1 7 15.4503 29.9958 -10.7749
ITEM: TIMESTEP
76000
ITEM: NUMBER OF ATOMS
1
ITEM: BOX BOUNDS xy xz yz pp pp pp
0 45.4624 0
0 45.4624 0
0 51.75 0
ITEM: ATOMS id type x y z
1 7 16.8161 28.8994 -11.2613
ITEM: TIMESTEP
78000
ITEM: NUMBER OF ATOMS
1
ITEM: BOX BOUNDS xy xz yz pp pp pp
0 45.4624 0
0 45.4624 0
0 51.75 0
ITEM: ATOMS id type x y z
1 7 18.4324 28.6528 -11.6021
ITEM: TIMESTEP
80000
ITEM: NUMBER OF ATOMS
1
ITEM: BOX BOUNDS xy xz yz pp pp pp
0 45.4624 0
0 45.4624 0
0 51.75 0
ITEM: ATOMS id type x y z
1 7 18.6332 28.6492 -10.3394
ITEM: TIMESTEP
82000
ITEM: NUMBER OF ATOMS
1
ITEM: BOX BOUNDS xy xz yz pp pp pp
0 45.4624 0
0 45.4624 0
0 51.75 0
ITEM: ATOMS id type x y z
1 7 18.4785 26.354 -8.0511
ITEM: TIMESTEP
84000
ITEM: NUMBER OF ATOMS
1
ITEM: BOX BOUNDS xy xz yz pp pp pp
0 45.4624 0
0 45.4624 0
0 51.75 0
ITEM: ATOMS id type x y z
1 7 18.1067 24.0914 -6.421
ITEM: TIMESTEP
86000
ITEM: NUMBER OF ATOMS
1
ITEM: BOX BOUNDS xy xz yz pp pp pp
0 45.4624 0
0 45.4624 0
0 51.75 0
ITEM: ATOMS id type x y z
1 7 17.5133 23.1338 -4.3197
ITEM: TIMESTEP
88000
ITEM: NUMBER OF ATOMS
1
ITEM: BOX BOUNDS xy xz yz pp pp pp
0 45.4624 0
0 45.4624 0
0 51.75 0
ITEM: ATOMS id type x y z
1 7 16.7086 23.8997 -2.631
ITEM: TIMESTEP
90000
ITEM: NUMBER OF ATOMS
1
ITEM: BOX BOUNDS xy xz yz pp pp pp
0 45.4624 0
0 45.4624 0
0 51.75 0
ITEM: ATOMS id type x y z
1 7 16.5258 25.7496 -1.0154
ITEM: TIMESTEP
92000
ITEM: NUMBER OF ATOMS
1
ITEM: BOX BOUNDS xy xz yz pp pp pp
0 45.4624 0
0 45.4624 0
0 51.75 0
ITEM: ATOMS id type x y z
1 7 16.0219 26.51 1.08585
ITEM: TIMESTEP
94000
ITEM: NUMBER OF ATOMS
1
ITEM: BOX BOUNDS xy xz yz pp pp pp
0 45.4624 0
0 45.4624 0
0 51.75 0
ITEM: ATOMS id type x y z
1 7 14.1342 26.7649 3.65193
ITEM: TIMESTEP
96000
ITEM: NUMBER OF ATOMS
1
ITEM: BOX BOUNDS xy xz yz pp pp pp
0 45.4624 0
0 45.4624 0
0 51.75 0
ITEM: ATOMS id type x y z
1 7 14.0147 28.5119 5.65856
ITEM: TIMESTEP
98000
ITEM: NUMBER OF ATOMS
1
ITEM: BOX BOUNDS xy xz yz pp pp pp
0 45.4624 0
0 45.4624 0
0 51.75 0
ITEM: ATOMS id type x y z
1 7 14.005 30.1577 7.44445
ITEM: TIMESTEP
100000
ITEM: NUMBER OF ATOMS
1
ITEM: BOX BOUNDS xy xz yz pp pp pp
0 45.4624 0
0 45.4624 0
0 51.75 0
ITEM: ATOMS id type x y z
1 7 13.32 30.7917 9.38462
ITEM: TIMESTEP
102000
ITEM: NUMBER OF ATOMS
1
ITEM: BOX BOUNDS xy xz yz pp pp pp
0 45.4624 0
0 45.4624 0
0 51.75 0
ITEM: ATOMS id type x y z
1 7 15.0756 32.0586 11.1766
ITEM: TIMESTEP
104000
ITEM: NUMBER OF ATOMS
1
ITEM: BOX BOUNDS xy xz yz pp pp pp
0 45.4624 0
0 45.4624 0
0 51.75 0
ITEM: ATOMS id type x y z
1 7 16.0594 32.6373 12.9802
ITEM: TIMESTEP
106000
ITEM: NUMBER OF ATOMS
1
ITEM: BOX BOUNDS xy xz yz pp pp pp
0 45.4624 0
0 45.4624 0
0 51.75 0
ITEM: ATOMS id type x y z
1 7 16.3569 31.4671 16.0061
ITEM: TIMESTEP
108000
ITEM: NUMBER OF ATOMS
1
ITEM: BOX BOUNDS xy xz yz pp pp pp
0 45.4624 0
0 45.4624 0
0 51.75 0
ITEM: ATOMS id type x y z
1 7 17.5134 29.175 18.2536
ITEM: TIMESTEP
110000
ITEM: NUMBER OF ATOMS
1
ITEM: BOX BOUNDS xy xz yz pp pp pp
0 45.4624 0
0 45.4624 0
0 51.75 0
ITEM: ATOMS id type x y z
1 7 18.5599 27.1932 20.3584
ITEM: TIMESTEP
112000
ITEM: NUMBER OF ATOMS
1
ITEM: BOX BOUNDS xy xz yz pp pp pp
0 45.4624 0
0 45.4624 0
0 51.75 0
ITEM: ATOMS id type x y z
1 7 19.6539 26.5702 22.7154
ITEM: TIMESTEP
114000
ITEM: NUMBER OF ATOMS
1
ITEM: BOX BOUNDS xy xz yz pp pp pp
0 45.4624 0
0 45.4624 0
0 51.75 0
ITEM: ATOMS id type x y z
1 7 20.0662 27.253 25.2455
ITEM: TIMESTEP
116000
ITEM: NUMBER OF ATOMS
1
ITEM: BOX BOUNDS xy xz yz pp pp pp
0 45.4624 0
0 45.4624 0
0 51.75 0
ITEM: ATOMS id type x y z
1 7 19.5738 26.5842 25.7054
ITEM: TIMESTEP
118000
ITEM: NUMBER OF ATOMS
1
ITEM: BOX BOUNDS xy xz yz pp pp pp
0 45.4624 0
0 45.4624 0
0 51.75 0
ITEM: ATOMS id type x y z
1 7 18.9393 26.6409 25.7814
ITEM: TIMESTEP
120000
ITEM: NUMBER OF ATOMS
1
ITEM: BOX BOUNDS xy xz yz pp pp pp
0 45.4624 0
0 45.4624 0
0 51.75 0
ITEM: ATOMS id type x y z
1 7 20.2352 26.8845 25.1872
ITEM: TIMESTEP
122000
ITEM: NUMBER OF ATOMS
1
ITEM: BOX BOUNDS xy xz yz pp pp pp
0 45.4624 0
0 45.4624 0
0 51.75 0
ITEM: ATOMS id type x y z
1 7 20.7303 28.0561 24.1454
ITEM: TIMESTEP
124000
ITEM: NUMBER OF ATOMS
1
ITEM: BOX BOUNDS xy xz yz pp pp pp
0 45.4624 0
0 45.4624 0
0 51.75 0
ITEM: ATOMS id type x y z
1 7 19.6961 27.1868 23.2923
ITEM: TIMESTEP
126000
ITEM: NUMBER OF ATOMS
1
ITEM: BOX BOUNDS xy xz yz pp pp pp
0 45.4624 0
0 45.4624 0
0 51.75 0
ITEM: ATOMS id type x y z
1 7 17.5144 27.3922 22.6705
ITEM: TIMESTEP
128000
ITEM: NUMBER OF ATOMS
1
ITEM: BOX BOUNDS xy xz yz pp pp pp
0 45.4624 0
0 45.4624 0
0 51.75 0
ITEM: ATOMS id type x y z
1 7 17.0344 25.7722 21.2723
ITEM: TIMESTEP
130000
ITEM: NUMBER OF ATOMS
1
ITEM: BOX BOUNDS xy xz yz pp pp pp
0 45.4624 0
0 45.4624 0
0 51.75 0
ITEM: ATOMS id type x y z
1 7 16.8783 25.1087 19.9749
ITEM: TIMESTEP
132000
ITEM: NUMBER OF ATOMS
1
ITEM: BOX BOUNDS xy xz yz pp pp pp
0 45.4624 0
0 45.4624 0
0 51.75 0
ITEM: ATOMS id type x y z
1 7 16.2311 24.9861 19.4569
ITEM: TIMESTEP
134000
ITEM: NUMBER OF ATOMS
1
ITEM: BOX BOUNDS xy xz yz pp pp pp
0 45.4624 0
0 45.4624 0
0 51.75 0
ITEM: ATOMS id type x y z
1 7 16.0786 25.6123 19.1732
ITEM: TIMESTEP
136000
ITEM: NUMBER OF ATOMS
1
ITEM: BOX BOUNDS xy xz yz pp pp pp
0 45.4624 0
0 45.4624 0
0 51.75 0
ITEM: ATOMS id type x y z
1 7 16.3121 26.4161 19.8468
ITEM: TIMESTEP
138000
ITEM: NUMBER OF ATOMS
1
ITEM: BOX BOUNDS xy xz yz pp pp pp
0 45.4624 0
0 45.4624 0
0 51.75 0
ITEM: ATOMS id type x y z
1 7 16.8914 27.2939 21.0588
ITEM: TIMESTEP
140000
ITEM: NUMBER OF ATOMS
1
ITEM: BOX BOUNDS xy xz yz pp pp pp
0 45.4624 0
0 45.4624 0
0 51.75 0
ITEM: ATOMS id type x y z
1 7 16.9395 28.9462 22.437
ITEM: TIMESTEP
142000
ITEM: NUMBER OF ATOMS
1
ITEM: BOX BOUNDS xy xz yz pp pp pp
0 45.4624 0
0 45.4624 0
0 51.75 0
ITEM: ATOMS id type x y z
1 7 18.7112 28.5083 22.3747
ITEM: TIMESTEP
144000
ITEM: NUMBER OF ATOMS
1
ITEM: BOX BOUNDS xy xz yz pp pp pp
0 45.4624 0
0 45.4624 0
0 51.75 0
ITEM: ATOMS id type x y z
1 7 19.0752 29.3596 23.0759
ITEM: TIMESTEP
146000
ITEM: NUMBER OF ATOMS
1
ITEM: BOX BOUNDS xy xz yz pp pp pp
0 45.4624 0
0 45.4624 0
0 51.75 0
ITEM: ATOMS id type x y z
1 7 18.0473 30.0265 23.7334
ITEM: TIMESTEP
148000
ITEM: NUMBER OF ATOMS
1
ITEM: BOX BOUNDS xy xz yz pp pp pp
0 45.4624 0
0 45.4624 0
0 51.75 0
ITEM: ATOMS id type x y z
1 7 16.6761 29.4726 23.5189
ITEM: TIMESTEP
150000
ITEM: NUMBER OF ATOMS
1
ITEM: BOX BOUNDS xy xz yz pp pp pp
0 45.4624 0
0 45.4624 0
0 51.75 0
ITEM: ATOMS id type x y z
1 7 16.038 29.2576 22.6123
ITEM: TIMESTEP
152000
ITEM: NUMBER OF ATOMS
1
ITEM: BOX BOUNDS xy xz yz pp pp pp
0 45.4624 0
0 45.4624 0
0 51.75 0
ITEM: ATOMS id type x y z
1 7 14.8838 28.674 21.8351
ITEM: TIMESTEP
154000
ITEM: NUMBER OF ATOMS
1
ITEM: BOX BOUNDS xy xz yz pp pp pp
0 45.4624 0
0 45.4624 0
0 51.75 0
ITEM: ATOMS id type x y z
1 7 14.3112 28.0864 22.1087
ITEM: TIMESTEP
156000
ITEM: NUMBER OF ATOMS
1
ITEM: BOX BOUNDS xy xz yz pp pp pp
0 45.4624 0
0 45.4624 0
0 51.75 0
ITEM: ATOMS id type x y z
1 7 14.4279 27.788 22.0197
ITEM: TIMESTEP
158000
ITEM: NUMBER OF ATOMS
1
ITEM: BOX BOUNDS xy xz yz pp pp pp
0 45.4624 0
0 45.4624 0
0 51.75 0
ITEM: ATOMS id type x y z
1 7 13.5016 26.9284 21.1263
ITEM: TIMESTEP
160000
ITEM: NUMBER OF ATOMS
1
ITEM: BOX BOUNDS xy xz yz pp pp pp
0 45.4624 0
0 45.4624 0
0 51.75 0
ITEM: ATOMS id type x y z
1 7 13.4389 27.3585 20.7173
ITEM: TIMESTEP
162000
ITEM: NUMBER OF ATOMS
1
ITEM: BOX BOUNDS xy xz yz pp pp pp
0 45.4624 0
0 45.4624 0
0 51.75 0
ITEM: ATOMS id type x y z
1 7 13.3395 26.8783 22.5877
ITEM: TIMESTEP
164000
ITEM: NUMBER OF ATOMS
1
ITEM: BOX BOUNDS xy xz yz pp pp pp
0 45.4624 0
0 45.4624 0
0 51.75 0
ITEM: ATOMS id type x y z
1 7 13.1329 27.2136 22.5436
ITEM: TIMESTEP
166000
ITEM: NUMBER OF ATOMS
1
ITEM: BOX BOUNDS xy xz yz pp pp pp
0 45.4624 0
0 45.4624 0
0 51.75 0
ITEM: ATOMS id type x y z
1 7 13.7329 27.7305 21.3705
ITEM: TIMESTEP
168000
ITEM: NUMBER OF ATOMS
1
ITEM: BOX BOUNDS xy xz yz pp pp pp
0 45.4624 0
0 45.4624 0
0 51.75 0
ITEM: ATOMS id type x y z
1 7 14.1975 27.8567 20.6602
ITEM: TIMESTEP
170000
ITEM: NUMBER OF ATOMS
1
ITEM: BOX BOUNDS xy xz yz pp pp pp
0 45.4624 0
0 45.4624 0
0 51.75 0
ITEM: ATOMS id type x y z
1 7 13.0506 27.6554 20.1849
ITEM: TIMESTEP
172000
ITEM: NUMBER OF ATOMS
1
ITEM: BOX BOUNDS xy xz yz pp pp pp
0 45.4624 0
0 45.4624 0
0 51.75 0
ITEM: ATOMS id type x y z
1 7 13.2577 27.0931 21.8771
ITEM: TIMESTEP
174000
ITEM: NUMBER OF ATOMS
1
ITEM: BOX BOUNDS xy xz yz pp pp pp
0 45.4624 0
0 45.4624 0
0 51.75 0
ITEM: ATOMS id type x y z
1 7 13.0269 27.6278 22.556
ITEM: TIMESTEP
176000
ITEM: NUMBER OF ATOMS
1
ITEM: BOX BOUNDS xy xz yz pp pp pp
0 45.4624 0
0 45.4624 0
0 51.75 0
ITEM: ATOMS id type x y z
1 7 13.7267 27.7943 22.4149
ITEM: TIMESTEP
178000
ITEM: NUMBER OF ATOMS
1
ITEM: BOX BOUNDS xy xz yz pp pp pp
0 45.4624 0
0 45.4624 0
0 51.75 0
ITEM: ATOMS id type x y z
1 7 14.2872 28.5694 21.5058
ITEM: TIMESTEP
180000
ITEM: NUMBER OF ATOMS
1
ITEM: BOX BOUNDS xy xz yz pp pp pp
0 45.4624 0
0 45.4624 0
0 51.75 0
ITEM: ATOMS id type x y z
1 7 14.484 28.5832 22.4844
ITEM: TIMESTEP
182000
ITEM: NUMBER OF ATOMS
1
ITEM: BOX BOUNDS xy xz yz pp pp pp
0 45.4624 0
0 45.4624 0
0 51.75 0
ITEM: ATOMS id type x y z
1 7 14.5355 27.9552 23.3901
ITEM: TIMESTEP
184000
ITEM: NUMBER OF ATOMS
1
ITEM: BOX BOUNDS xy xz yz pp pp pp
0 45.4624 0
0 45.4624 0
0 51.75 0
ITEM: ATOMS id type x y z
1 7 13.7425 28.4198 24.2083
ITEM: TIMESTEP
186000
ITEM: NUMBER OF ATOMS
1
ITEM: BOX BOUNDS xy xz yz pp pp pp
0 45.4624 0
0 45.4624 0
0 51.75 0
ITEM: ATOMS id type x y z
1 7 13.0256 28.6343 25.9736
ITEM: TIMESTEP
188000
ITEM: NUMBER OF ATOMS
1
ITEM: BOX BOUNDS xy xz yz pp pp pp
0 45.4624 0
0 45.4624 0
0 51.75 0
ITEM: ATOMS id type x y z
1 7 13.3513 30.5053 26.0365
ITEM: TIMESTEP
190000
ITEM: NUMBER OF ATOMS
1
ITEM: BOX BOUNDS xy xz yz pp pp pp
0 45.4624 0
0 45.4624 0
0 51.75 0
ITEM: ATOMS id type x y z
1 7 13.0923 30.2206 27.2003
ITEM: TIMESTEP
192000
ITEM: NUMBER OF ATOMS
1
ITEM: BOX BOUNDS xy xz yz pp pp pp
0 45.4624 0
0 45.4624 0
0 51.75 0
ITEM: ATOMS id type x y z
1 7 12.8324 31.1861 28.2798
ITEM: TIMESTEP
194000
ITEM: NUMBER OF ATOMS
1
ITEM: BOX BOUNDS xy xz yz pp pp pp
0 45.4624 0
0 45.4624 0
0 51.75 0
ITEM: ATOMS id type x y z
1 7 12.681 31.1794 29.298
ITEM: TIMESTEP
196000
ITEM: NUMBER OF ATOMS
1
ITEM: BOX BOUNDS xy xz yz pp pp pp
0 45.4624 0
0 45.4624 0
0 51.75 0
ITEM: ATOMS id type x y z
1 7 12.7385 31.28 29.167
ITEM: TIMESTEP
198000
ITEM: NUMBER OF ATOMS
1
ITEM: BOX BOUNDS xy xz yz pp pp pp
0 45.4624 0
0 45.4624 0
0 51.75 0
ITEM: ATOMS id type x y z
1 7 13.5562 31.2459 28.3819
ITEM: TIMESTEP
200000
ITEM: NUMBER OF ATOMS
1
ITEM: BOX BOUNDS xy xz yz pp pp pp
0 45.4624 0
0 45.4624 0
0 51.75 0
ITEM: ATOMS id type x y z
1 7 14.0602 31.6254 28.5329
ITEM: TIMESTEP
202000
ITEM: NUMBER OF ATOMS
1
ITEM: BOX BOUNDS xy xz yz pp pp pp
0 45.4624 0
0 45.4624 0
0 51.75 0
ITEM: ATOMS id type x y z
1 7 13.4746 30.8794 27.7174
ITEM: TIMESTEP
204000
ITEM: NUMBER OF ATOMS
1
ITEM: BOX BOUNDS xy xz yz pp pp pp
0 45.4624 0
0 45.4624 0
0 51.75 0
ITEM: ATOMS id type x y z
1 7 13.8574 30.4499 27.0357
ITEM: TIMESTEP
206000
ITEM: NUMBER OF ATOMS
1
ITEM: BOX BOUNDS xy xz yz pp pp pp
0 45.4624 0
0 45.4624 0
0 51.75 0
ITEM: ATOMS id type x y z
1 7 13.0862 30.0363 27.9646
ITEM: TIMESTEP
208000
ITEM: NUMBER OF ATOMS
1
ITEM: BOX BOUNDS xy xz yz pp pp pp
0 45.4624 0
0 45.4624 0
0 51.75 0
ITEM: ATOMS id type x y z
1 7 14.2199 30.4641 28.7662
ITEM: TIMESTEP
210000
ITEM: NUMBER OF ATOMS
1
ITEM: BOX BOUNDS xy xz yz pp pp pp
0 45.4624 0
0 45.4624 0
0 51.75 0
ITEM: ATOMS id type x y z
1 7 15.1356 30.6898 29.1248
ITEM: TIMESTEP
212000
ITEM: NUMBER OF ATOMS
1
ITEM: BOX BOUNDS xy xz yz pp pp pp
0 45.4624 0
0 45.4624 0
0 51.75 0
ITEM: ATOMS id type x y z
1 7 15.2206 30.6342 29.869
ITEM: TIMESTEP
214000
ITEM: NUMBER OF ATOMS
1
ITEM: BOX BOUNDS xy xz yz pp pp pp
0 45.4624 0
0 45.4624 0
0 51.75 0
ITEM: ATOMS id type x y z
1 7 15.3911 31.0932 30.1506
ITEM: TIMESTEP
216000
ITEM: NUMBER OF ATOMS
1
ITEM: BOX BOUNDS xy xz yz pp pp pp
0 45.4624 0
0 45.4624 0
0 51.75 0
ITEM: ATOMS id type x y z
1 7 16.0754 31.2348 30.1964
ITEM: TIMESTEP
218000
ITEM: NUMBER OF ATOMS
1
ITEM: BOX BOUNDS xy xz yz pp pp pp
0 45.4624 0
0 45.4624 0
0 51.75 0
ITEM: ATOMS id type x y z
1 7 16.892 30.4782 30.3861
ITEM: TIMESTEP
220000
ITEM: NUMBER OF ATOMS
1
ITEM: BOX BOUNDS xy xz yz pp pp pp
0 45.4624 0
0 45.4624 0
0 51.75 0
ITEM: ATOMS id type x y z
1 7 17.675 30.9187 30.4874
ITEM: TIMESTEP
222000
ITEM: NUMBER OF ATOMS
1
ITEM: BOX BOUNDS xy xz yz pp pp pp
0 45.4624 0
0 45.4624 0
0 51.75 0
ITEM: ATOMS id type x y z
1 7 17.7523 30.4807 29.6963
ITEM: TIMESTEP
224000
ITEM: NUMBER OF ATOMS
1
ITEM: BOX BOUNDS xy xz yz pp pp pp
0 45.4624 0
0 45.4624 0
0 51.75 0
ITEM: ATOMS id type x y z
1 7 17.7739 30.524 28.8513
ITEM: TIMESTEP
226000
ITEM: NUMBER OF ATOMS
1
ITEM: BOX BOUNDS xy xz yz pp pp pp
0 45.4624 0
0 45.4624 0
0 51.75 0
ITEM: ATOMS id type x y z
1 7 16.6733 29.8997 28.1983
ITEM: TIMESTEP
228000
ITEM: NUMBER OF ATOMS
1
ITEM: BOX BOUNDS xy xz yz pp pp pp
0 45.4624 0
0 45.4624 0
0 51.75 0
ITEM: ATOMS id type x y z
1 7 16.4554 29.7003 28.1498
ITEM: TIMESTEP
230000
ITEM: NUMBER OF ATOMS
1
ITEM: BOX BOUNDS xy xz yz pp pp pp
0 45.4624 0
0 45.4624 0
0 51.75 0
ITEM: ATOMS id type x y z
1 7 17.0846 30.1724 27.791
ITEM: TIMESTEP
232000
ITEM: NUMBER OF ATOMS
1
ITEM: BOX BOUNDS xy xz yz pp pp pp
0 45.4624 0
0 45.4624 0
0 51.75 0
ITEM: ATOMS id type x y z
1 7 16.986 30.2517 28.414
ITEM: TIMESTEP
234000
ITEM: NUMBER OF ATOMS
1
ITEM: BOX BOUNDS xy xz yz pp pp pp
0 45.4624 0
0 45.4624 0
0 51.75 0
ITEM: ATOMS id type x y z
1 7 16.7273 29.3196 29.5934
ITEM: TIMESTEP
236000
ITEM: NUMBER OF ATOMS
1
ITEM: BOX BOUNDS xy xz yz pp pp pp
0 45.4624 0
0 45.4624 0
0 51.75 0
ITEM: ATOMS id type x y z
1 7 17.205 28.602 30.4605
ITEM: TIMESTEP
238000
ITEM: NUMBER OF ATOMS
1
ITEM: BOX BOUNDS xy xz yz pp pp pp
0 45.4624 0
0 45.4624 0
0 51.75 0
ITEM: ATOMS id type x y z
1 7 17.122 28.6293 31.6314
ITEM: TIMESTEP
240000
ITEM: NUMBER OF ATOMS
1
ITEM: BOX BOUNDS xy xz yz pp pp pp
0 45.4624 0
0 45.4624 0
0 51.75 0
ITEM: ATOMS id type x y z
1 7 16.8688 28.1281 32.074
ITEM: TIMESTEP
242000
ITEM: NUMBER OF ATOMS
1
ITEM: BOX BOUNDS xy xz yz pp pp pp
0 45.4624 0
0 45.4624 0
0 51.75 0
ITEM: ATOMS id type x y z
1 7 16.6557 28.821 32.9401
ITEM: TIMESTEP
244000
ITEM: NUMBER OF ATOMS
1
ITEM: BOX BOUNDS xy xz yz pp pp pp
0 45.4624 0
0 45.4624 0
0 51.75 0
ITEM: ATOMS id type x y z
1 7 17.0445 29.4381 32.2173
ITEM: TIMESTEP
246000
ITEM: NUMBER OF ATOMS
1
ITEM: BOX BOUNDS xy xz yz pp pp pp
0 45.4624 0
0 45.4624 0
0 51.75 0
ITEM: ATOMS id type x y z
1 7 18.0267 30.3377 32.0152
ITEM: TIMESTEP
248000
ITEM: NUMBER OF ATOMS
1
ITEM: BOX BOUNDS xy xz yz pp pp pp
0 45.4624 0
0 45.4624 0
0 51.75 0
ITEM: ATOMS id type x y z
1 7 18.5375 30.595 31.4189
ITEM: TIMESTEP
250000
ITEM: NUMBER OF ATOMS
1
ITEM: BOX BOUNDS xy xz yz pp pp pp
0 45.4624 0
0 45.4624 0
0 51.75 0
ITEM: ATOMS id type x y z
1 7 18.3858 31.4295 31.5695
ITEM: TIMESTEP
252000
ITEM: NUMBER OF ATOMS
1
ITEM: BOX BOUNDS xy xz yz pp pp pp
0 45.4624 0
0 45.4624 0
0 51.75 0
ITEM: ATOMS id type x y z
1 7 17.1387 31.1154 32.5246
ITEM: TIMESTEP
254000
ITEM: NUMBER OF ATOMS
1
ITEM: BOX BOUNDS xy xz yz pp pp pp
0 45.4624 0
0 45.4624 0
0 51.75 0
ITEM: ATOMS id type x y z
1 7 16.9124 31.5967 32.8242
ITEM: TIMESTEP
256000
ITEM: NUMBER OF ATOMS
1
ITEM: BOX BOUNDS xy xz yz pp pp pp
0 45.4624 0
0 45.4624 0
0 51.75 0
ITEM: ATOMS id type x y z
1 7 16.731 31.6401 31.6771
ITEM: TIMESTEP
258000
ITEM: NUMBER OF ATOMS
1
ITEM: BOX BOUNDS xy xz yz pp pp pp
0 45.4624 0
0 45.4624 0
0 51.75 0
ITEM: ATOMS id type x y z
1 7 16.7329 31.328 30.3474
ITEM: TIMESTEP
260000
ITEM: NUMBER OF ATOMS
1
ITEM: BOX BOUNDS xy xz yz pp pp pp
0 45.4624 0
0 45.4624 0
0 51.75 0
ITEM: ATOMS id type x y z
1 7 16.1841 31.0652 29.5223
ITEM: TIMESTEP
262000
ITEM: NUMBER OF ATOMS
1
ITEM: BOX BOUNDS xy xz yz pp pp pp
0 45.4624 0
0 45.4624 0
0 51.75 0
ITEM: ATOMS id type x y z
1 7 15.9782 30.6791 28.2257
ITEM: TIMESTEP
264000
ITEM: NUMBER OF ATOMS
1
ITEM: BOX BOUNDS xy xz yz pp pp pp
0 45.4624 0
0 45.4624 0
0 51.75 0
ITEM: ATOMS id type x y z
1 7 15.2924 31.1075 28.0899
ITEM: TIMESTEP
266000
ITEM: NUMBER OF ATOMS
1
ITEM: BOX BOUNDS xy xz yz pp pp pp
0 45.4624 0
0 45.4624 0
0 51.75 0
ITEM: ATOMS id type x y z
1 7 15.8017 30.7821 28.7342
ITEM: TIMESTEP
268000
ITEM: NUMBER OF ATOMS
1
ITEM: BOX BOUNDS xy xz yz pp pp pp
0 45.4624 0
0 45.4624 0
0 51.75 0
ITEM: ATOMS id type x y z
1 7 16.3153 31.1901 28.7537
ITEM: TIMESTEP
270000
ITEM: NUMBER OF ATOMS
1
ITEM: BOX BOUNDS xy xz yz pp pp pp
0 45.4624 0
0 45.4624 0
0 51.75 0
ITEM: ATOMS id type x y z
1 7 15.1693 30.3511 28.467
ITEM: TIMESTEP
272000
ITEM: NUMBER OF ATOMS
1
ITEM: BOX BOUNDS xy xz yz pp pp pp
0 45.4624 0
0 45.4624 0
0 51.75 0
ITEM: ATOMS id type x y z
1 7 15.1653 28.82 27.2722
ITEM: TIMESTEP
274000
ITEM: NUMBER OF ATOMS
1
ITEM: BOX BOUNDS xy xz yz pp pp pp
0 45.4624 0
0 45.4624 0
0 51.75 0
ITEM: ATOMS id type x y z
1 7 16.3449 28.5256 27.2392
ITEM: TIMESTEP
276000
ITEM: NUMBER OF ATOMS
1
ITEM: BOX BOUNDS xy xz yz pp pp pp
0 45.4624 0
0 45.4624 0
0 51.75 0
ITEM: ATOMS id type x y z
1 7 17.5139 29.4952 28.5309
ITEM: TIMESTEP
278000
ITEM: NUMBER OF ATOMS
1
ITEM: BOX BOUNDS xy xz yz pp pp pp
0 45.4624 0
0 45.4624 0
0 51.75 0
ITEM: ATOMS id type x y z
1 7 17.4553 31.2303 29.6365
ITEM: TIMESTEP
280000
ITEM: NUMBER OF ATOMS
1
ITEM: BOX BOUNDS xy xz yz pp pp pp
0 45.4624 0
0 45.4624 0
0 51.75 0
ITEM: ATOMS id type x y z
1 7 16.9925 30.337 29.2924
ITEM: TIMESTEP
282000
ITEM: NUMBER OF ATOMS
1
ITEM: BOX BOUNDS xy xz yz pp pp pp
0 45.4624 0
0 45.4624 0
0 51.75 0
ITEM: ATOMS id type x y z
1 7 16.307 30.6043 27.7445
ITEM: TIMESTEP
284000
ITEM: NUMBER OF ATOMS
1
ITEM: BOX BOUNDS xy xz yz pp pp pp
0 45.4624 0
0 45.4624 0
0 51.75 0
ITEM: ATOMS id type x y z
1 7 14.9035 29.3841 27.7032
ITEM: TIMESTEP
286000
ITEM: NUMBER OF ATOMS
1
ITEM: BOX BOUNDS xy xz yz pp pp pp
0 45.4624 0
0 45.4624 0
0 51.75 0
ITEM: ATOMS id type x y z
1 7 14.8839 28.7127 25.7842
ITEM: TIMESTEP
288000
ITEM: NUMBER OF ATOMS
1
ITEM: BOX BOUNDS xy xz yz pp pp pp
0 45.4624 0
0 45.4624 0
0 51.75 0
ITEM: ATOMS id type x y z
1 7 15.358 28.599 24.8873
ITEM: TIMESTEP
290000
ITEM: NUMBER OF ATOMS
1
ITEM: BOX BOUNDS xy xz yz pp pp pp
0 45.4624 0
0 45.4624 0
0 51.75 0
ITEM: ATOMS id type x y z
1 7 14.7199 29.2289 25.6346
ITEM: TIMESTEP
292000
ITEM: NUMBER OF ATOMS
1
ITEM: BOX BOUNDS xy xz yz pp pp pp
0 45.4624 0
0 45.4624 0
0 51.75 0
ITEM: ATOMS id type x y z
1 7 14.3854 29.3894 27.1068
ITEM: TIMESTEP
294000
ITEM: NUMBER OF ATOMS
1
ITEM: BOX BOUNDS xy xz yz pp pp pp
0 45.4624 0
0 45.4624 0
0 51.75 0
ITEM: ATOMS id type x y z
1 7 15.2662 29.3381 27.7327
ITEM: TIMESTEP
296000
ITEM: NUMBER OF ATOMS
1
ITEM: BOX BOUNDS xy xz yz pp pp pp
0 45.4624 0
0 45.4624 0
0 51.75 0
ITEM: ATOMS id type x y z
1 7 14.8455 29.9998 27.8542
ITEM: TIMESTEP
298000
ITEM: NUMBER OF ATOMS
1
ITEM: BOX BOUNDS xy xz yz pp pp pp
0 45.4624 0
0 45.4624 0
0 51.75 0
ITEM: ATOMS id type x y z
1 7 15.8081 30.1465 27.4076
ITEM: TIMESTEP
300000
ITEM: NUMBER OF ATOMS
1
ITEM: BOX BOUNDS xy xz yz pp pp pp
0 45.4624 0
0 45.4624 0
0 51.75 0
ITEM: ATOMS id type x y z
1 7 16.0845 30.6383 28.6113
ITEM: TIMESTEP
302000
ITEM: NUMBER OF ATOMS
1
ITEM: BOX BOUNDS xy xz yz pp pp pp
0 45.4624 0
0 45.4624 0
0 51.75 0
ITEM: ATOMS id type x y z
1 7 15.9011 29.905 28.4553
ITEM: TIMESTEP
304000
ITEM: NUMBER OF ATOMS
1
ITEM: BOX BOUNDS xy xz yz pp pp pp
0 45.4624 0
0 45.4624 0
0 51.75 0
ITEM: ATOMS id type x y z
1 7 16.38 29.9822 28.1091
ITEM: TIMESTEP
306000
ITEM: NUMBER OF ATOMS
1
ITEM: BOX BOUNDS xy xz yz pp pp pp
0 45.4624 0
0 45.4624 0
0 51.75 0
ITEM: ATOMS id type x y z
1 7 16.1328 31.4697 28.4809
ITEM: TIMESTEP
308000
ITEM: NUMBER OF ATOMS
1
ITEM: BOX BOUNDS xy xz yz pp pp pp
0 45.4624 0
0 45.4624 0
0 51.75 0
ITEM: ATOMS id type x y z
1 7 17.3858 31.1486 26.1116
ITEM: TIMESTEP
310000
ITEM: NUMBER OF ATOMS
1
ITEM: BOX BOUNDS xy xz yz pp pp pp
0 45.4624 0
0 45.4624 0
0 51.75 0
ITEM: ATOMS id type x y z
1 7 18.367 31.0402 25.1396
ITEM: TIMESTEP
312000
ITEM: NUMBER OF ATOMS
1
ITEM: BOX BOUNDS xy xz yz pp pp pp
0 45.4624 0
0 45.4624 0
0 51.75 0
ITEM: ATOMS id type x y z
1 7 17.9059 31.0335 25.4343
ITEM: TIMESTEP
314000
ITEM: NUMBER OF ATOMS
1
ITEM: BOX BOUNDS xy xz yz pp pp pp
0 45.4624 0
0 45.4624 0
0 51.75 0
ITEM: ATOMS id type x y z
1 7 16.9689 31.9146 26.5427
ITEM: TIMESTEP
316000
ITEM: NUMBER OF ATOMS
1
ITEM: BOX BOUNDS xy xz yz pp pp pp
0 45.4624 0
0 45.4624 0
0 51.75 0
ITEM: ATOMS id type x y z
1 7 16.5864 31.9845 27.1093
ITEM: TIMESTEP
318000
ITEM: NUMBER OF ATOMS
1
ITEM: BOX BOUNDS xy xz yz pp pp pp
0 45.4624 0
0 45.4624 0
0 51.75 0
ITEM: ATOMS id type x y z
1 7 15.478 30.8103 27.8289
ITEM: TIMESTEP
320000
ITEM: NUMBER OF ATOMS
1
ITEM: BOX BOUNDS xy xz yz pp pp pp
0 45.4624 0
0 45.4624 0
0 51.75 0
ITEM: ATOMS id type x y z
1 7 15.3171 30.4277 28.0598
ITEM: TIMESTEP
322000
ITEM: NUMBER OF ATOMS
1
ITEM: BOX BOUNDS xy xz yz pp pp pp
0 45.4624 0
0 45.4624 0
0 51.75 0
ITEM: ATOMS id type x y z
1 7 15.3631 30.4975 27.6982
ITEM: TIMESTEP
324000
ITEM: NUMBER OF ATOMS
1
ITEM: BOX BOUNDS xy xz yz pp pp pp
0 45.4624 0
0 45.4624 0
0 51.75 0
ITEM: ATOMS id type x y z
1 7 14.9507 30.7801 26.5587
ITEM: TIMESTEP
326000
ITEM: NUMBER OF ATOMS
1
ITEM: BOX BOUNDS xy xz yz pp pp pp
0 45.4624 0
0 45.4624 0
0 51.75 0
ITEM: ATOMS id type x y z
1 7 15.153 31.6774 25.0448
ITEM: TIMESTEP
328000
ITEM: NUMBER OF ATOMS
1
ITEM: BOX BOUNDS xy xz yz pp pp pp
0 45.4624 0
0 45.4624 0
0 51.75 0
ITEM: ATOMS id type x y z
1 7 15.6167 32.1431 24.1308
ITEM: TIMESTEP
330000
ITEM: NUMBER OF ATOMS
1
ITEM: BOX BOUNDS xy xz yz pp pp pp
0 45.4624 0
0 45.4624 0
0 51.75 0
ITEM: ATOMS id type x y z
1 7 15.1093 32.0887 24.5273
ITEM: TIMESTEP
332000
ITEM: NUMBER OF ATOMS
1
ITEM: BOX BOUNDS xy xz yz pp pp pp
0 45.4624 0
0 45.4624 0
0 51.75 0
ITEM: ATOMS id type x y z
1 7 14.6308 31.3777 24.7394
ITEM: TIMESTEP
334000
ITEM: NUMBER OF ATOMS
1
ITEM: BOX BOUNDS xy xz yz pp pp pp
0 45.4624 0
0 45.4624 0
0 51.75 0
ITEM: ATOMS id type x y z
1 7 14.3513 30.6641 24.636
ITEM: TIMESTEP
336000
ITEM: NUMBER OF ATOMS
1
ITEM: BOX BOUNDS xy xz yz pp pp pp
0 45.4624 0
0 45.4624 0
0 51.75 0
ITEM: ATOMS id type x y z
1 7 14.2823 29.9462 24.4075
ITEM: TIMESTEP
338000
ITEM: NUMBER OF ATOMS
1
ITEM: BOX BOUNDS xy xz yz pp pp pp
0 45.4624 0
0 45.4624 0
0 51.75 0
ITEM: ATOMS id type x y z
1 7 13.9488 30.6885 24.485
ITEM: TIMESTEP
340000
ITEM: NUMBER OF ATOMS
1
ITEM: BOX BOUNDS xy xz yz pp pp pp
0 45.4624 0
0 45.4624 0
0 51.75 0
ITEM: ATOMS id type x y z
1 7 15.0803 30.776 24.4381
ITEM: TIMESTEP
342000
ITEM: NUMBER OF ATOMS
1
ITEM: BOX BOUNDS xy xz yz pp pp pp
0 45.4624 0
0 45.4624 0
0 51.75 0
ITEM: ATOMS id type x y z
1 7 14.7203 31.5084 23.6745
ITEM: TIMESTEP
344000
ITEM: NUMBER OF ATOMS
1
ITEM: BOX BOUNDS xy xz yz pp pp pp
0 45.4624 0
0 45.4624 0
0 51.75 0
ITEM: ATOMS id type x y z
1 7 14.954 31.6067 23.9164
ITEM: TIMESTEP
346000
ITEM: NUMBER OF ATOMS
1
ITEM: BOX BOUNDS xy xz yz pp pp pp
0 45.4624 0
0 45.4624 0
0 51.75 0
ITEM: ATOMS id type x y z
1 7 14.4066 30.6688 24.0925
ITEM: TIMESTEP
348000
ITEM: NUMBER OF ATOMS
1
ITEM: BOX BOUNDS xy xz yz pp pp pp
0 45.4624 0
0 45.4624 0
0 51.75 0
ITEM: ATOMS id type x y z
1 7 13.3412 31.6944 23.843
ITEM: TIMESTEP
350000
ITEM: NUMBER OF ATOMS
1
ITEM: BOX BOUNDS xy xz yz pp pp pp
0 45.4624 0
0 45.4624 0
0 51.75 0
ITEM: ATOMS id type x y z
1 7 14.4504 29.7792 23.3398
ITEM: TIMESTEP
352000
ITEM: NUMBER OF ATOMS
1
ITEM: BOX BOUNDS xy xz yz pp pp pp
0 45.4624 0
0 45.4624 0
0 51.75 0
ITEM: ATOMS id type x y z
1 7 15.2356 29.9504 22.8309
ITEM: TIMESTEP
354000
ITEM: NUMBER OF ATOMS
1
ITEM: BOX BOUNDS xy xz yz pp pp pp
0 45.4624 0
0 45.4624 0
0 51.75 0
ITEM: ATOMS id type x y z
1 7 15.4259 31.025 22.1243
ITEM: TIMESTEP
356000
ITEM: NUMBER OF ATOMS
1
ITEM: BOX BOUNDS xy xz yz pp pp pp
0 45.4624 0
0 45.4624 0
0 51.75 0
ITEM: ATOMS id type x y z
1 7 15.7548 30.9421 22.9835
ITEM: TIMESTEP
358000
ITEM: NUMBER OF ATOMS
1
ITEM: BOX BOUNDS xy xz yz pp pp pp
0 45.4624 0
0 45.4624 0
0 51.75 0
ITEM: ATOMS id type x y z
1 7 14.6962 30.5408 22.2796
ITEM: TIMESTEP
360000
ITEM: NUMBER OF ATOMS
1
ITEM: BOX BOUNDS xy xz yz pp pp pp
0 45.4624 0
0 45.4624 0
0 51.75 0
ITEM: ATOMS id type x y z
1 7 14.3379 30.5953 22.3189
ITEM: TIMESTEP
362000
ITEM: NUMBER OF ATOMS
1
ITEM: BOX BOUNDS xy xz yz pp pp pp
0 45.4624 0
0 45.4624 0
0 51.75 0
ITEM: ATOMS id type x y z
1 7 13.9512 31.0369 23.0895
ITEM: TIMESTEP
364000
ITEM: NUMBER OF ATOMS
1
ITEM: BOX BOUNDS xy xz yz pp pp pp
0 45.4624 0
0 45.4624 0
0 51.75 0
ITEM: ATOMS id type x y z
1 7 13.5672 30.8094 23.4355
ITEM: TIMESTEP