ITEM: TIMESTEP
10000
ITEM: NUMBER OF ATOMS
1
ITEM: BOX BOUNDS xy xz yz pp pp pp
0 45.4624 0
0 45.4624 0
0 51.75 0
ITEM: ATOMS id type x y z
1 7 1 1 1
ITEM: TIMESTEP
12000
ITEM: NUMBER OF ATOMS
1
ITEM: BOX BOUNDS xy xz yz pp pp pp
0 45.4624 0
0 45.4624 0
0 51.75 0
ITEM: ATOMS id type x y z
1 7 2 2 2
ITEM: TIMESTEP
14000
ITEM: NUMBER OF ATOMS
1
ITEM: BOX BOUNDS xy xz yz pp pp pp
0 45.4624 0
0 45.4624 0
0 51.75 0
ITEM: ATOMS id type x y z
1 7 3 3 3
ITEM: TIMESTEP
16000
ITEM: NUMBER OF ATOMS
1
ITEM: BOX BOUNDS xy xz yz pp pp pp
0 45.4624 0
0 45.4624 0
0 51.75 0
ITEM: ATOMS id type x y z
1 7 4 4 4